 Entering Gaussian System, Link 0=/es01/paratera/sce4075/software-sce4075/g16/g16
 Input=1-1.gjf
 Output=1-1.log
 Initial command:
 /es01/paratera/sce4075/software-sce4075/g16/l1.exe "/es01/paratera/sce4075/software-sce4075/test/tmp/Gau-187068.inp" -scrdir="/es01/paratera/sce4075/software-sce4075/test/tmp/"
 Entering Link 1 = /es01/paratera/sce4075/software-sce4075/g16/l1.exe PID=    187069.
  
 Copyright (c) 1988-2019, Gaussian, Inc.  All Rights Reserved.
  
 This is part of the Gaussian(R) 16 program.  It is based on
 the Gaussian(R) 09 system (copyright 2009, Gaussian, Inc.),
 the Gaussian(R) 03 system (copyright 2003, Gaussian, Inc.),
 the Gaussian(R) 98 system (copyright 1998, Gaussian, Inc.),
 the Gaussian(R) 94 system (copyright 1995, Gaussian, Inc.),
 the Gaussian 92(TM) system (copyright 1992, Gaussian, Inc.),
 the Gaussian 90(TM) system (copyright 1990, Gaussian, Inc.),
 the Gaussian 88(TM) system (copyright 1988, Gaussian, Inc.),
 the Gaussian 86(TM) system (copyright 1986, Carnegie Mellon
 University), and the Gaussian 82(TM) system (copyright 1983,
 Carnegie Mellon University). Gaussian is a federally registered
 trademark of Gaussian, Inc.
  
 This software contains proprietary and confidential information,
 including trade secrets, belonging to Gaussian, Inc.
  
 This software is provided under written license and may be
 used, copied, transmitted, or stored only in accord with that
 written license.
  
 The following legend is applicable only to US Government
 contracts under FAR:
  
                    RESTRICTED RIGHTS LEGEND
  
 Use, reproduction and disclosure by the US Government is
 subject to restrictions as set forth in subparagraphs (a)
 and (c) of the Commercial Computer Software - Restricted
 Rights clause in FAR 52.227-19.
  
 Gaussian, Inc.
 340 Quinnipiac St., Bldg. 40, Wallingford CT 06492
  
  
 ---------------------------------------------------------------
 Warning -- This program may not be used in any manner that
 competes with the business of Gaussian, Inc. or will provide
 assistance to any competitor of Gaussian, Inc.  The licensee
 of this program is prohibited from giving any competitor of
 Gaussian, Inc. access to this program.  By using this program,
 the user acknowledges that Gaussian, Inc. is engaged in the
 business of creating and licensing software in the field of
 computational chemistry and represents and warrants to the
 licensee that it is not a competitor of Gaussian, Inc. and that
 it will not use this program in any manner prohibited above.
 ---------------------------------------------------------------
  

 Cite this work as:
 Gaussian 16, Revision C.01,
 M. J. Frisch, G. W. Trucks, H. B. Schlegel, G. E. Scuseria, 
 M. A. Robb, J. R. Cheeseman, G. Scalmani, V. Barone, 
 G. A. Petersson, H. Nakatsuji, X. Li, M. Caricato, A. V. Marenich, 
 J. Bloino, B. G. Janesko, R. Gomperts, B. Mennucci, H. P. Hratchian, 
 J. V. Ortiz, A. F. Izmaylov, J. L. Sonnenberg, D. Williams-Young, 
 F. Ding, F. Lipparini, F. Egidi, J. Goings, B. Peng, A. Petrone, 
 T. Henderson, D. Ranasinghe, V. G. Zakrzewski, J. Gao, N. Rega, 
 G. Zheng, W. Liang, M. Hada, M. Ehara, K. Toyota, R. Fukuda, 
 J. Hasegawa, M. Ishida, T. Nakajima, Y. Honda, O. Kitao, H. Nakai, 
 T. Vreven, K. Throssell, J. A. Montgomery, Jr., J. E. Peralta, 
 F. Ogliaro, M. J. Bearpark, J. J. Heyd, E. N. Brothers, K. N. Kudin, 
 V. N. Staroverov, T. A. Keith, R. Kobayashi, J. Normand, 
 K. Raghavachari, A. P. Rendell, J. C. Burant, S. S. Iyengar, 
 J. Tomasi, M. Cossi, J. M. Millam, M. Klene, C. Adamo, R. Cammi, 
 J. W. Ochterski, R. L. Martin, K. Morokuma, O. Farkas, 
 J. B. Foresman, and D. J. Fox, Gaussian, Inc., Wallingford CT, 2019.
 
 ******************************************
 Gaussian 16:  ES64L-G16RevC.01  3-Jul-2019
                24-Oct-2022 
 ******************************************
 %nprocs=56
 Will use up to   56 processors via shared memory.
 %mem=120GB
 %chk=1-1.chk
 -------------------
 # M062X/6-311G* opt
 -------------------
 1/18=20,19=15,26=3,38=1/1,3;
 2/9=110,12=2,17=6,18=5,40=1/2;
 3/5=4,6=6,7=1,11=2,25=1,30=1,71=1,74=-55/1,2,3;
 4//1;
 5/5=2,38=5/2;
 6/7=2,8=2,9=2,10=2,28=1/1;
 7//1,2,3,16;
 1/18=20,19=15,26=3/3(2);
 2/9=110/2;
 99//99;
 2/9=110/2;
 3/5=4,6=6,7=1,11=2,25=1,30=1,71=1,74=-55/1,2,3;
 4/5=5,16=3,69=1/1;
 5/5=2,38=5/2;
 7//1,2,3,16;
 1/18=20,19=15,26=3/3(-5);
 2/9=110/2;
 6/7=2,8=2,9=2,10=2,19=2,28=1/1;
 99/9=1/99;
 ---
 opt
 ---
 Symbolic Z-matrix:
 Charge =  0 Multiplicity = 1
 C                    -3.0894   -0.3863   -0.0286 
 C                    -5.0782   -1.2977    0.0612 
 C                    -5.2894    0.0684   -0.0274 
 N                    -4.01      0.6453   -0.0676 
 N                    -3.7266   -1.549     0.0545 
 C                    -6.5351    0.854    -0.1261 
 C                    -7.4574    0.5658   -1.1472 
 C                    -6.8417    1.8777    0.7866 
 C                    -8.6516    1.2774   -1.2496 
 H                    -7.2304   -0.2244   -1.8566 
 C                    -8.0333    2.5936    0.6773 
 H                    -6.1461    2.1078    1.5877 
 C                    -8.9424    2.2959   -0.3395 
 H                    -9.3529    1.0391   -2.0448 
 H                    -8.2542    3.381     1.393 
 H                    -9.8719    2.8528   -0.4213 
 C                    -6.0401   -2.4092    0.1669 
 C                    -5.6817   -3.6763   -0.3246 
 C                    -7.2982   -2.2572    0.7742 
 C                    -6.56     -4.7534   -0.2255 
 H                    -4.7083   -3.8043   -0.7871 
 C                    -8.1757   -3.3361    0.8688 
 H                    -7.5842   -1.2957    1.1871 
 C                    -7.8129   -4.5881    0.3683 
 H                    -6.2648   -5.7244   -0.6148 
 H                    -9.1427   -3.1991    1.3459 
 H                    -8.498    -5.4282    0.4455 
 C                    -3.7541    2.0567   -0.0735 
 C                    -4.0528    2.8146   -1.2083 
 C                    -3.2217    2.6658    1.0664 
 C                    -3.8108    4.1887   -1.2016 
 H                    -4.4703    2.3265   -2.0831 
 C                    -2.975     4.0383    1.0623 
 H                    -2.9955    2.061     1.9391 
 C                    -3.2698    4.8015   -0.0697 
 H                    -4.0435    4.7787   -2.0835 
 H                    -2.5546    4.5108    1.9455 
 H                    -3.0788    5.871    -0.0692 
 C                    -1.6263   -0.3027   -0.0648 
 C                    -0.9106    0.8176   -0.5301 
 C                    -0.8685   -1.4327    0.3633 
 C                     0.4754    0.8566   -0.5313 
 H                    -1.4503    1.6772   -0.9063 
 C                     0.5304   -1.3715    0.3733 
 C                     1.2251   -0.2402   -0.063 
 H                     0.9811    1.7542   -0.873 
 H                     1.0591   -2.2635    0.6932 
 C                     2.707    -0.2052   -0.0478 
 C                     3.4331    0.4619   -1.0496 
 C                     3.4436   -0.8388    0.9679 
 C                     4.823     0.5023   -1.0379 
 H                     2.9006    0.9474   -1.8623 
 C                     4.8339   -0.8177    0.981 
 H                     2.9174   -1.351     1.7683 
 C                     5.5479   -0.1425   -0.0224 
 H                     5.3562    1.027    -1.8241 
 H                     5.3753   -1.3206    1.7758 
 O                    -1.4286   -2.5903    0.7627 
 H                    -2.4064   -2.5314    0.5865 
 N                     6.9672   -0.1136   -0.0119 
 C                     7.6674    0.0521    1.2147 
 C                     7.2236    0.9818    2.1692 
 C                     8.8138   -0.7108    1.4905 
 C                     7.9076    1.1341    3.3737 
 H                     6.3426    1.5805    1.9607 
 C                     9.5016   -0.5381    2.6901 
 H                     9.1591   -1.4362    0.7608 
 C                     9.0524    0.3803    3.6414 
 H                     7.5493    1.8582    4.1008 
 H                     10.3866  -1.1378    2.8866 
 H                     9.5869    0.5068    4.5786 
 C                     7.6913   -0.2572   -1.2275 
 C                     7.2939   -1.2025   -2.1872 
 C                     8.815     0.5441   -1.487 
 C                     8.0006   -1.332    -3.3811 
 H                     6.431    -1.8309   -1.9909 
 C                     9.5261    0.3942   -2.6761 
 H                     9.1246    1.2811   -0.7528 
 C                     9.1226   -0.5396   -3.6329 
 H                     7.6783   -2.0689   -4.1123 
 H                     10.3933   1.0234   -2.8599 
 H                     9.6752   -0.6486   -4.5617 
 

 GradGradGradGradGradGradGradGradGradGradGradGradGradGradGradGradGradGrad
 Berny optimization.
 Initialization pass.
                           ----------------------------
                           !    Initial Parameters    !
                           ! (Angstroms and Degrees)  !
 --------------------------                            --------------------------
 ! Name  Definition              Value          Derivative Info.                !
 --------------------------------------------------------------------------------
 ! R1    R(1,4)                  1.3832         estimate D2E/DX2                !
 ! R2    R(1,5)                  1.3285         estimate D2E/DX2                !
 ! R3    R(1,39)                 1.4659         estimate D2E/DX2                !
 ! R4    R(2,3)                  1.3852         estimate D2E/DX2                !
 ! R5    R(2,5)                  1.3748         estimate D2E/DX2                !
 ! R6    R(2,17)                 1.4737         estimate D2E/DX2                !
 ! R7    R(3,4)                  1.404          estimate D2E/DX2                !
 ! R8    R(3,6)                  1.476          estimate D2E/DX2                !
 ! R9    R(4,28)                 1.4344         estimate D2E/DX2                !
 ! R10   R(6,7)                  1.4058         estimate D2E/DX2                !
 ! R11   R(6,8)                  1.4053         estimate D2E/DX2                !
 ! R12   R(7,9)                  1.3939         estimate D2E/DX2                !
 ! R13   R(7,10)                 1.0859         estimate D2E/DX2                !
 ! R14   R(8,11)                 1.3944         estimate D2E/DX2                !
 ! R15   R(8,12)                 1.0856         estimate D2E/DX2                !
 ! R16   R(9,13)                 1.3965         estimate D2E/DX2                !
 ! R17   R(9,14)                 1.0867         estimate D2E/DX2                !
 ! R18   R(11,13)                1.3961         estimate D2E/DX2                !
 ! R19   R(11,15)                1.0867         estimate D2E/DX2                !
 ! R20   R(13,16)                1.0866         estimate D2E/DX2                !
 ! R21   R(17,18)                1.4055         estimate D2E/DX2                !
 ! R22   R(17,19)                1.4053         estimate D2E/DX2                !
 ! R23   R(18,20)                1.3933         estimate D2E/DX2                !
 ! R24   R(18,21)                1.0853         estimate D2E/DX2                !
 ! R25   R(19,22)                1.3939         estimate D2E/DX2                !
 ! R26   R(19,23)                1.0848         estimate D2E/DX2                !
 ! R27   R(20,24)                1.3963         estimate D2E/DX2                !
 ! R28   R(20,25)                1.087          estimate D2E/DX2                !
 ! R29   R(22,24)                1.3963         estimate D2E/DX2                !
 ! R30   R(22,26)                1.087          estimate D2E/DX2                !
 ! R31   R(24,27)                1.0868         estimate D2E/DX2                !
 ! R32   R(28,29)                1.3969         estimate D2E/DX2                !
 ! R33   R(28,30)                1.3978         estimate D2E/DX2                !
 ! R34   R(29,31)                1.3953         estimate D2E/DX2                !
 ! R35   R(29,32)                1.0853         estimate D2E/DX2                !
 ! R36   R(30,33)                1.3945         estimate D2E/DX2                !
 ! R37   R(30,34)                1.0856         estimate D2E/DX2                !
 ! R38   R(31,35)                1.3962         estimate D2E/DX2                !
 ! R39   R(31,36)                1.0863         estimate D2E/DX2                !
 ! R40   R(33,35)                1.3967         estimate D2E/DX2                !
 ! R41   R(33,37)                1.0863         estimate D2E/DX2                !
 ! R42   R(35,38)                1.0864         estimate D2E/DX2                !
 ! R43   R(39,40)                1.4085         estimate D2E/DX2                !
 ! R44   R(39,41)                1.4263         estimate D2E/DX2                !
 ! R45   R(40,42)                1.3865         estimate D2E/DX2                !
 ! R46   R(40,43)                1.0825         estimate D2E/DX2                !
 ! R47   R(41,44)                1.4003         estimate D2E/DX2                !
 ! R48   R(41,58)                1.3466         estimate D2E/DX2                !
 ! R49   R(42,45)                1.4087         estimate D2E/DX2                !
 ! R50   R(42,46)                1.0854         estimate D2E/DX2                !
 ! R51   R(44,45)                1.3974         estimate D2E/DX2                !
 ! R52   R(44,47)                1.0851         estimate D2E/DX2                !
 ! R53   R(45,48)                1.4824         estimate D2E/DX2                !
 ! R54   R(48,49)                1.4056         estimate D2E/DX2                !
 ! R55   R(48,50)                1.4056         estimate D2E/DX2                !
 ! R56   R(49,51)                1.3905         estimate D2E/DX2                !
 ! R57   R(49,52)                1.0862         estimate D2E/DX2                !
 ! R58   R(50,53)                1.3905         estimate D2E/DX2                !
 ! R59   R(50,54)                1.0862         estimate D2E/DX2                !
 ! R60   R(51,55)                1.4045         estimate D2E/DX2                !
 ! R61   R(51,56)                1.0852         estimate D2E/DX2                !
 ! R62   R(53,55)                1.4045         estimate D2E/DX2                !
 ! R63   R(53,57)                1.0852         estimate D2E/DX2                !
 ! R64   R(55,60)                1.4196         estimate D2E/DX2                !
 ! R65   R(58,59)                0.9953         estimate D2E/DX2                !
 ! R66   R(60,61)                1.4221         estimate D2E/DX2                !
 ! R67   R(60,72)                1.4222         estimate D2E/DX2                !
 ! R68   R(61,62)                1.4044         estimate D2E/DX2                !
 ! R69   R(61,63)                1.4044         estimate D2E/DX2                !
 ! R70   R(62,64)                1.3935         estimate D2E/DX2                !
 ! R71   R(62,65)                1.0854         estimate D2E/DX2                !
 ! R72   R(63,66)                1.3935         estimate D2E/DX2                !
 ! R73   R(63,67)                1.0853         estimate D2E/DX2                !
 ! R74   R(64,68)                1.3966         estimate D2E/DX2                !
 ! R75   R(64,69)                1.0869         estimate D2E/DX2                !
 ! R76   R(66,68)                1.3965         estimate D2E/DX2                !
 ! R77   R(66,70)                1.087          estimate D2E/DX2                !
 ! R78   R(68,71)                1.0863         estimate D2E/DX2                !
 ! R79   R(72,73)                1.4045         estimate D2E/DX2                !
 ! R80   R(72,74)                1.4043         estimate D2E/DX2                !
 ! R81   R(73,75)                1.3934         estimate D2E/DX2                !
 ! R82   R(73,76)                1.0854         estimate D2E/DX2                !
 ! R83   R(74,77)                1.3936         estimate D2E/DX2                !
 ! R84   R(74,78)                1.0854         estimate D2E/DX2                !
 ! R85   R(75,79)                1.3965         estimate D2E/DX2                !
 ! R86   R(75,80)                1.087          estimate D2E/DX2                !
 ! R87   R(77,79)                1.3965         estimate D2E/DX2                !
 ! R88   R(77,81)                1.0871         estimate D2E/DX2                !
 ! R89   R(79,82)                1.0862         estimate D2E/DX2                !
 ! A1    A(4,1,5)              109.5894         estimate D2E/DX2                !
 ! A2    A(4,1,39)             128.3926         estimate D2E/DX2                !
 ! A3    A(5,1,39)             122.0179         estimate D2E/DX2                !
 ! A4    A(3,2,5)              109.2607         estimate D2E/DX2                !
 ! A5    A(3,2,17)             130.4587         estimate D2E/DX2                !
 ! A6    A(5,2,17)             120.277          estimate D2E/DX2                !
 ! A7    A(2,3,4)              105.5528         estimate D2E/DX2                !
 ! A8    A(2,3,6)              131.1374         estimate D2E/DX2                !
 ! A9    A(4,3,6)              123.2596         estimate D2E/DX2                !
 ! A10   A(1,4,3)              107.4114         estimate D2E/DX2                !
 ! A11   A(1,4,28)             127.9679         estimate D2E/DX2                !
 ! A12   A(3,4,28)             124.5396         estimate D2E/DX2                !
 ! A13   A(1,5,2)              108.173          estimate D2E/DX2                !
 ! A14   A(3,6,7)              119.547          estimate D2E/DX2                !
 ! A15   A(3,6,8)              121.8971         estimate D2E/DX2                !
 ! A16   A(7,6,8)              118.5497         estimate D2E/DX2                !
 ! A17   A(6,7,9)              120.7148         estimate D2E/DX2                !
 ! A18   A(6,7,10)             119.1131         estimate D2E/DX2                !
 ! A19   A(9,7,10)             120.1715         estimate D2E/DX2                !
 ! A20   A(6,8,11)             120.6315         estimate D2E/DX2                !
 ! A21   A(6,8,12)             119.5938         estimate D2E/DX2                !
 ! A22   A(11,8,12)            119.7735         estimate D2E/DX2                !
 ! A23   A(7,9,13)             120.189          estimate D2E/DX2                !
 ! A24   A(7,9,14)             119.6493         estimate D2E/DX2                !
 ! A25   A(13,9,14)            120.1609         estimate D2E/DX2                !
 ! A26   A(8,11,13)            120.271          estimate D2E/DX2                !
 ! A27   A(8,11,15)            119.6084         estimate D2E/DX2                !
 ! A28   A(13,11,15)           120.1192         estimate D2E/DX2                !
 ! A29   A(9,13,11)            119.6423         estimate D2E/DX2                !
 ! A30   A(9,13,16)            120.188          estimate D2E/DX2                !
 ! A31   A(11,13,16)           120.1696         estimate D2E/DX2                !
 ! A32   A(2,17,18)            119.2361         estimate D2E/DX2                !
 ! A33   A(2,17,19)            122.2605         estimate D2E/DX2                !
 ! A34   A(18,17,19)           118.4845         estimate D2E/DX2                !
 ! A35   A(17,18,20)           120.7496         estimate D2E/DX2                !
 ! A36   A(17,18,21)           118.9506         estimate D2E/DX2                !
 ! A37   A(20,18,21)           120.2995         estimate D2E/DX2                !
 ! A38   A(17,19,22)           120.6114         estimate D2E/DX2                !
 ! A39   A(17,19,23)           119.7624         estimate D2E/DX2                !
 ! A40   A(22,19,23)           119.6196         estimate D2E/DX2                !
 ! A41   A(18,20,24)           120.2881         estimate D2E/DX2                !
 ! A42   A(18,20,25)           119.5965         estimate D2E/DX2                !
 ! A43   A(24,20,25)           120.1153         estimate D2E/DX2                !
 ! A44   A(19,22,24)           120.4063         estimate D2E/DX2                !
 ! A45   A(19,22,26)           119.4906         estimate D2E/DX2                !
 ! A46   A(24,22,26)           120.0996         estimate D2E/DX2                !
 ! A47   A(20,24,22)           119.4544         estimate D2E/DX2                !
 ! A48   A(20,24,27)           120.2879         estimate D2E/DX2                !
 ! A49   A(22,24,27)           120.2568         estimate D2E/DX2                !
 ! A50   A(4,28,29)            119.9362         estimate D2E/DX2                !
 ! A51   A(4,28,30)            119.5617         estimate D2E/DX2                !
 ! A52   A(29,28,30)           120.4974         estimate D2E/DX2                !
 ! A53   A(28,29,31)           119.5597         estimate D2E/DX2                !
 ! A54   A(28,29,32)           119.5417         estimate D2E/DX2                !
 ! A55   A(31,29,32)           120.8985         estimate D2E/DX2                !
 ! A56   A(28,30,33)           119.5951         estimate D2E/DX2                !
 ! A57   A(28,30,34)           119.4827         estimate D2E/DX2                !
 ! A58   A(33,30,34)           120.9185         estimate D2E/DX2                !
 ! A59   A(29,31,35)           120.2215         estimate D2E/DX2                !
 ! A60   A(29,31,36)           119.5938         estimate D2E/DX2                !
 ! A61   A(35,31,36)           120.1845         estimate D2E/DX2                !
 ! A62   A(30,33,35)           120.1886         estimate D2E/DX2                !
 ! A63   A(30,33,37)           119.6155         estimate D2E/DX2                !
 ! A64   A(35,33,37)           120.1957         estimate D2E/DX2                !
 ! A65   A(31,35,33)           119.9341         estimate D2E/DX2                !
 ! A66   A(31,35,38)           120.0371         estimate D2E/DX2                !
 ! A67   A(33,35,38)           120.0288         estimate D2E/DX2                !
 ! A68   A(1,39,40)            124.1024         estimate D2E/DX2                !
 ! A69   A(1,39,41)            118.5335         estimate D2E/DX2                !
 ! A70   A(40,39,41)           117.344          estimate D2E/DX2                !
 ! A71   A(39,40,42)           122.0457         estimate D2E/DX2                !
 ! A72   A(39,40,43)           119.5447         estimate D2E/DX2                !
 ! A73   A(42,40,43)           118.4084         estimate D2E/DX2                !
 ! A74   A(39,41,44)           119.8868         estimate D2E/DX2                !
 ! A75   A(39,41,58)           123.3049         estimate D2E/DX2                !
 ! A76   A(44,41,58)           116.8072         estimate D2E/DX2                !
 ! A77   A(40,42,45)           120.6511         estimate D2E/DX2                !
 ! A78   A(40,42,46)           119.2908         estimate D2E/DX2                !
 ! A79   A(45,42,46)           120.0379         estimate D2E/DX2                !
 ! A80   A(41,44,45)           121.9914         estimate D2E/DX2                !
 ! A81   A(41,44,47)           116.9312         estimate D2E/DX2                !
 ! A82   A(45,44,47)           121.0176         estimate D2E/DX2                !
 ! A83   A(42,45,44)           118.0052         estimate D2E/DX2                !
 ! A84   A(42,45,48)           121.135          estimate D2E/DX2                !
 ! A85   A(44,45,48)           120.8556         estimate D2E/DX2                !
 ! A86   A(45,48,49)           121.3514         estimate D2E/DX2                !
 ! A87   A(45,48,50)           121.3755         estimate D2E/DX2                !
 ! A88   A(49,48,50)           117.2731         estimate D2E/DX2                !
 ! A89   A(48,49,51)           121.6086         estimate D2E/DX2                !
 ! A90   A(48,49,52)           119.4818         estimate D2E/DX2                !
 ! A91   A(51,49,52)           118.904          estimate D2E/DX2                !
 ! A92   A(48,50,53)           121.5966         estimate D2E/DX2                !
 ! A93   A(48,50,54)           119.4171         estimate D2E/DX2                !
 ! A94   A(53,50,54)           118.9842         estimate D2E/DX2                !
 ! A95   A(49,51,55)           120.5741         estimate D2E/DX2                !
 ! A96   A(49,51,56)           119.9373         estimate D2E/DX2                !
 ! A97   A(55,51,56)           119.4856         estimate D2E/DX2                !
 ! A98   A(50,53,55)           120.5882         estimate D2E/DX2                !
 ! A99   A(50,53,57)           119.9119         estimate D2E/DX2                !
 ! A100  A(55,53,57)           119.4986         estimate D2E/DX2                !
 ! A101  A(51,55,53)           118.353          estimate D2E/DX2                !
 ! A102  A(51,55,60)           120.7988         estimate D2E/DX2                !
 ! A103  A(53,55,60)           120.8482         estimate D2E/DX2                !
 ! A104  A(41,58,59)           107.7732         estimate D2E/DX2                !
 ! A105  A(55,60,61)           120.0673         estimate D2E/DX2                !
 ! A106  A(55,60,72)           120.0428         estimate D2E/DX2                !
 ! A107  A(61,60,72)           119.8891         estimate D2E/DX2                !
 ! A108  A(60,61,62)           120.515          estimate D2E/DX2                !
 ! A109  A(60,61,63)           120.5322         estimate D2E/DX2                !
 ! A110  A(62,61,63)           118.9528         estimate D2E/DX2                !
 ! A111  A(61,62,64)           120.3114         estimate D2E/DX2                !
 ! A112  A(61,62,65)           119.4122         estimate D2E/DX2                !
 ! A113  A(64,62,65)           120.2763         estimate D2E/DX2                !
 ! A114  A(61,63,66)           120.3067         estimate D2E/DX2                !
 ! A115  A(61,63,67)           119.3902         estimate D2E/DX2                !
 ! A116  A(66,63,67)           120.3031         estimate D2E/DX2                !
 ! A117  A(62,64,68)           120.6004         estimate D2E/DX2                !
 ! A118  A(62,64,69)           119.2899         estimate D2E/DX2                !
 ! A119  A(68,64,69)           120.1039         estimate D2E/DX2                !
 ! A120  A(63,66,68)           120.6068         estimate D2E/DX2                !
 ! A121  A(63,66,70)           119.2819         estimate D2E/DX2                !
 ! A122  A(68,66,70)           120.105          estimate D2E/DX2                !
 ! A123  A(64,68,66)           119.213          estimate D2E/DX2                !
 ! A124  A(64,68,71)           120.3879         estimate D2E/DX2                !
 ! A125  A(66,68,71)           120.3991         estimate D2E/DX2                !
 ! A126  A(60,72,73)           120.5276         estimate D2E/DX2                !
 ! A127  A(60,72,74)           120.513          estimate D2E/DX2                !
 ! A128  A(73,72,74)           118.9595         estimate D2E/DX2                !
 ! A129  A(72,73,75)           120.2999         estimate D2E/DX2                !
 ! A130  A(72,73,76)           119.4102         estimate D2E/DX2                !
 ! A131  A(75,73,76)           120.2899         estimate D2E/DX2                !
 ! A132  A(72,74,77)           120.3045         estimate D2E/DX2                !
 ! A133  A(72,74,78)           119.386          estimate D2E/DX2                !
 ! A134  A(77,74,78)           120.3094         estimate D2E/DX2                !
 ! A135  A(73,75,79)           120.6133         estimate D2E/DX2                !
 ! A136  A(73,75,80)           119.2743         estimate D2E/DX2                !
 ! A137  A(79,75,80)           120.1063         estimate D2E/DX2                !
 ! A138  A(74,77,79)           120.6033         estimate D2E/DX2                !
 ! A139  A(74,77,81)           119.2796         estimate D2E/DX2                !
 ! A140  A(79,77,81)           120.1112         estimate D2E/DX2                !
 ! A141  A(75,79,77)           119.2105         estimate D2E/DX2                !
 ! A142  A(75,79,82)           120.3957         estimate D2E/DX2                !
 ! A143  A(77,79,82)           120.3937         estimate D2E/DX2                !
 ! D1    D(5,1,4,3)             -1.005          estimate D2E/DX2                !
 ! D2    D(5,1,4,28)           175.8055         estimate D2E/DX2                !
 ! D3    D(39,1,4,3)           179.1393         estimate D2E/DX2                !
 ! D4    D(39,1,4,28)           -4.0502         estimate D2E/DX2                !
 ! D5    D(4,1,5,2)              0.4443         estimate D2E/DX2                !
 ! D6    D(39,1,5,2)          -179.6892         estimate D2E/DX2                !
 ! D7    D(4,1,39,40)          -19.2951         estimate D2E/DX2                !
 ! D8    D(4,1,39,41)          162.381          estimate D2E/DX2                !
 ! D9    D(5,1,39,40)          160.8653         estimate D2E/DX2                !
 ! D10   D(5,1,39,41)          -17.4586         estimate D2E/DX2                !
 ! D11   D(5,2,3,4)             -0.8955         estimate D2E/DX2                !
 ! D12   D(5,2,3,6)            176.5301         estimate D2E/DX2                !
 ! D13   D(17,2,3,4)           178.4036         estimate D2E/DX2                !
 ! D14   D(17,2,3,6)            -4.1708         estimate D2E/DX2                !
 ! D15   D(3,2,5,1)              0.2998         estimate D2E/DX2                !
 ! D16   D(17,2,5,1)          -179.0827         estimate D2E/DX2                !
 ! D17   D(3,2,17,18)          152.452          estimate D2E/DX2                !
 ! D18   D(3,2,17,19)          -29.1543         estimate D2E/DX2                !
 ! D19   D(5,2,17,18)          -28.3142         estimate D2E/DX2                !
 ! D20   D(5,2,17,19)          150.0795         estimate D2E/DX2                !
 ! D21   D(2,3,4,1)              1.1419         estimate D2E/DX2                !
 ! D22   D(2,3,4,28)          -175.8057         estimate D2E/DX2                !
 ! D23   D(6,3,4,1)           -176.5397         estimate D2E/DX2                !
 ! D24   D(6,3,4,28)             6.5127         estimate D2E/DX2                !
 ! D25   D(2,3,6,7)            -54.5385         estimate D2E/DX2                !
 ! D26   D(2,3,6,8)            124.5383         estimate D2E/DX2                !
 ! D27   D(4,3,6,7)            122.4952         estimate D2E/DX2                !
 ! D28   D(4,3,6,8)            -58.4279         estimate D2E/DX2                !
 ! D29   D(1,4,28,29)          112.6273         estimate D2E/DX2                !
 ! D30   D(1,4,28,30)          -68.1667         estimate D2E/DX2                !
 ! D31   D(3,4,28,29)          -71.068          estimate D2E/DX2                !
 ! D32   D(3,4,28,30)          108.138          estimate D2E/DX2                !
 ! D33   D(3,6,7,9)            178.9245         estimate D2E/DX2                !
 ! D34   D(3,6,7,10)            -0.8045         estimate D2E/DX2                !
 ! D35   D(8,6,7,9)             -0.1833         estimate D2E/DX2                !
 ! D36   D(8,6,7,10)          -179.9123         estimate D2E/DX2                !
 ! D37   D(3,6,8,11)          -179.2914         estimate D2E/DX2                !
 ! D38   D(3,6,8,12)             0.3099         estimate D2E/DX2                !
 ! D39   D(7,6,8,11)            -0.2056         estimate D2E/DX2                !
 ! D40   D(7,6,8,12)           179.3956         estimate D2E/DX2                !
 ! D41   D(6,7,9,13)             0.4325         estimate D2E/DX2                !
 ! D42   D(6,7,9,14)          -179.9003         estimate D2E/DX2                !
 ! D43   D(10,7,9,13)         -179.8414         estimate D2E/DX2                !
 ! D44   D(10,7,9,14)           -0.1742         estimate D2E/DX2                !
 ! D45   D(6,8,11,13)            0.3473         estimate D2E/DX2                !
 ! D46   D(6,8,11,15)          179.9188         estimate D2E/DX2                !
 ! D47   D(12,8,11,13)        -179.2532         estimate D2E/DX2                !
 ! D48   D(12,8,11,15)           0.3183         estimate D2E/DX2                !
 ! D49   D(7,9,13,11)           -0.2898         estimate D2E/DX2                !
 ! D50   D(7,9,13,16)          179.8006         estimate D2E/DX2                !
 ! D51   D(14,9,13,11)        -179.9553         estimate D2E/DX2                !
 ! D52   D(14,9,13,16)           0.1351         estimate D2E/DX2                !
 ! D53   D(8,11,13,9)           -0.0976         estimate D2E/DX2                !
 ! D54   D(8,11,13,16)         179.812          estimate D2E/DX2                !
 ! D55   D(15,11,13,9)        -179.6669         estimate D2E/DX2                !
 ! D56   D(15,11,13,16)          0.2427         estimate D2E/DX2                !
 ! D57   D(2,17,18,20)         179.1732         estimate D2E/DX2                !
 ! D58   D(2,17,18,21)          -1.0062         estimate D2E/DX2                !
 ! D59   D(19,17,18,20)          0.7186         estimate D2E/DX2                !
 ! D60   D(19,17,18,21)       -179.4608         estimate D2E/DX2                !
 ! D61   D(2,17,19,22)        -179.278          estimate D2E/DX2                !
 ! D62   D(2,17,19,23)          -0.2189         estimate D2E/DX2                !
 ! D63   D(18,17,19,22)         -0.8727         estimate D2E/DX2                !
 ! D64   D(18,17,19,23)        178.1864         estimate D2E/DX2                !
 ! D65   D(17,18,20,24)         -0.1121         estimate D2E/DX2                !
 ! D66   D(17,18,20,25)        179.8016         estimate D2E/DX2                !
 ! D67   D(21,18,20,24)       -179.9304         estimate D2E/DX2                !
 ! D68   D(21,18,20,25)         -0.0167         estimate D2E/DX2                !
 ! D69   D(17,19,22,24)          0.4234         estimate D2E/DX2                !
 ! D70   D(17,19,22,26)        179.7474         estimate D2E/DX2                !
 ! D71   D(23,19,22,24)       -178.637          estimate D2E/DX2                !
 ! D72   D(23,19,22,26)          0.687          estimate D2E/DX2                !
 ! D73   D(18,20,24,22)         -0.3533         estimate D2E/DX2                !
 ! D74   D(18,20,24,27)        179.9935         estimate D2E/DX2                !
 ! D75   D(25,20,24,22)        179.7334         estimate D2E/DX2                !
 ! D76   D(25,20,24,27)          0.0802         estimate D2E/DX2                !
 ! D77   D(19,22,24,20)          0.1986         estimate D2E/DX2                !
 ! D78   D(19,22,24,27)        179.8519         estimate D2E/DX2                !
 ! D79   D(26,22,24,20)       -179.1212         estimate D2E/DX2                !
 ! D80   D(26,22,24,27)          0.5321         estimate D2E/DX2                !
 ! D81   D(4,28,29,31)         179.4818         estimate D2E/DX2                !
 ! D82   D(4,28,29,32)          -0.4978         estimate D2E/DX2                !
 ! D83   D(30,28,29,31)          0.2834         estimate D2E/DX2                !
 ! D84   D(30,28,29,32)       -179.6963         estimate D2E/DX2                !
 ! D85   D(4,28,30,33)        -179.8798         estimate D2E/DX2                !
 ! D86   D(4,28,30,34)           0.8104         estimate D2E/DX2                !
 ! D87   D(29,28,30,33)         -0.6783         estimate D2E/DX2                !
 ! D88   D(29,28,30,34)       -179.9882         estimate D2E/DX2                !
 ! D89   D(28,29,31,35)          0.1988         estimate D2E/DX2                !
 ! D90   D(28,29,31,36)       -179.9584         estimate D2E/DX2                !
 ! D91   D(32,29,31,35)       -179.8218         estimate D2E/DX2                !
 ! D92   D(32,29,31,36)          0.0209         estimate D2E/DX2                !
 ! D93   D(28,30,33,35)          0.5927         estimate D2E/DX2                !
 ! D94   D(28,30,33,37)       -179.563          estimate D2E/DX2                !
 ! D95   D(34,30,33,35)        179.8924         estimate D2E/DX2                !
 ! D96   D(34,30,33,37)         -0.2633         estimate D2E/DX2                !
 ! D97   D(29,31,35,33)         -0.2826         estimate D2E/DX2                !
 ! D98   D(29,31,35,38)        179.75           estimate D2E/DX2                !
 ! D99   D(36,31,35,33)        179.8756         estimate D2E/DX2                !
 ! D100  D(36,31,35,38)         -0.0919         estimate D2E/DX2                !
 ! D101  D(30,33,35,31)         -0.1161         estimate D2E/DX2                !
 ! D102  D(30,33,35,38)        179.8513         estimate D2E/DX2                !
 ! D103  D(37,33,35,31)       -179.9595         estimate D2E/DX2                !
 ! D104  D(37,33,35,38)          0.0079         estimate D2E/DX2                !
 ! D105  D(1,39,40,42)         179.2603         estimate D2E/DX2                !
 ! D106  D(1,39,40,43)          -1.1421         estimate D2E/DX2                !
 ! D107  D(41,39,40,42)         -2.3974         estimate D2E/DX2                !
 ! D108  D(41,39,40,43)        177.2002         estimate D2E/DX2                !
 ! D109  D(1,39,41,44)        -178.3469         estimate D2E/DX2                !
 ! D110  D(1,39,41,58)           2.0529         estimate D2E/DX2                !
 ! D111  D(40,39,41,44)          3.2155         estimate D2E/DX2                !
 ! D112  D(40,39,41,58)       -176.3847         estimate D2E/DX2                !
 ! D113  D(39,40,42,45)          0.1403         estimate D2E/DX2                !
 ! D114  D(39,40,42,46)       -178.224          estimate D2E/DX2                !
 ! D115  D(43,40,42,45)       -179.4617         estimate D2E/DX2                !
 ! D116  D(43,40,42,46)          2.174          estimate D2E/DX2                !
 ! D117  D(39,41,44,45)         -1.872          estimate D2E/DX2                !
 ! D118  D(39,41,44,47)       -179.0855         estimate D2E/DX2                !
 ! D119  D(58,41,44,45)        177.7537         estimate D2E/DX2                !
 ! D120  D(58,41,44,47)          0.5401         estimate D2E/DX2                !
 ! D121  D(39,41,58,59)          7.2072         estimate D2E/DX2                !
 ! D122  D(44,41,58,59)       -172.4045         estimate D2E/DX2                !
 ! D123  D(40,42,45,44)          1.3136         estimate D2E/DX2                !
 ! D124  D(40,42,45,48)       -179.4307         estimate D2E/DX2                !
 ! D125  D(46,42,45,44)        179.6657         estimate D2E/DX2                !
 ! D126  D(46,42,45,48)         -1.0786         estimate D2E/DX2                !
 ! D127  D(41,44,45,42)         -0.435          estimate D2E/DX2                !
 ! D128  D(41,44,45,48)       -179.6929         estimate D2E/DX2                !
 ! D129  D(47,44,45,42)        176.6662         estimate D2E/DX2                !
 ! D130  D(47,44,45,48)         -2.5917         estimate D2E/DX2                !
 ! D131  D(42,45,48,49)        -34.7576         estimate D2E/DX2                !
 ! D132  D(42,45,48,50)        145.3129         estimate D2E/DX2                !
 ! D133  D(44,45,48,49)        144.477          estimate D2E/DX2                !
 ! D134  D(44,45,48,50)        -35.4525         estimate D2E/DX2                !
 ! D135  D(45,48,49,51)        179.759          estimate D2E/DX2                !
 ! D136  D(45,48,49,52)         -1.1094         estimate D2E/DX2                !
 ! D137  D(50,48,49,51)         -0.3087         estimate D2E/DX2                !
 ! D138  D(50,48,49,52)        178.8229         estimate D2E/DX2                !
 ! D139  D(45,48,50,53)        179.4927         estimate D2E/DX2                !
 ! D140  D(45,48,50,54)         -1.0457         estimate D2E/DX2                !
 ! D141  D(49,48,50,53)         -0.4395         estimate D2E/DX2                !
 ! D142  D(49,48,50,54)        179.022          estimate D2E/DX2                !
 ! D143  D(48,49,51,55)          0.7546         estimate D2E/DX2                !
 ! D144  D(48,49,51,56)       -179.8754         estimate D2E/DX2                !
 ! D145  D(52,49,51,55)       -178.3819         estimate D2E/DX2                !
 ! D146  D(52,49,51,56)          0.9881         estimate D2E/DX2                !
 ! D147  D(48,50,53,55)          0.747          estimate D2E/DX2                !
 ! D148  D(48,50,53,57)       -179.6738         estimate D2E/DX2                !
 ! D149  D(54,50,53,55)       -178.7168         estimate D2E/DX2                !
 ! D150  D(54,50,53,57)          0.8624         estimate D2E/DX2                !
 ! D151  D(49,51,55,53)         -0.4422         estimate D2E/DX2                !
 ! D152  D(49,51,55,60)        179.4782         estimate D2E/DX2                !
 ! D153  D(56,51,55,53)       -179.815          estimate D2E/DX2                !
 ! D154  D(56,51,55,60)          0.1054         estimate D2E/DX2                !
 ! D155  D(50,53,55,51)         -0.2944         estimate D2E/DX2                !
 ! D156  D(50,53,55,60)        179.7852         estimate D2E/DX2                !
 ! D157  D(57,53,55,51)       -179.8754         estimate D2E/DX2                !
 ! D158  D(57,53,55,60)          0.2043         estimate D2E/DX2                !
 ! D159  D(51,55,60,61)        139.7983         estimate D2E/DX2                !
 ! D160  D(51,55,60,72)        -40.5231         estimate D2E/DX2                !
 ! D161  D(53,55,60,61)        -40.2833         estimate D2E/DX2                !
 ! D162  D(53,55,60,72)        139.3953         estimate D2E/DX2                !
 ! D163  D(55,60,61,62)        -42.2568         estimate D2E/DX2                !
 ! D164  D(55,60,61,63)        137.771          estimate D2E/DX2                !
 ! D165  D(72,60,61,62)        138.064          estimate D2E/DX2                !
 ! D166  D(72,60,61,63)        -41.9081         estimate D2E/DX2                !
 ! D167  D(55,60,72,73)        -41.7911         estimate D2E/DX2                !
 ! D168  D(55,60,72,74)        138.2096         estimate D2E/DX2                !
 ! D169  D(61,60,72,73)        137.8881         estimate D2E/DX2                !
 ! D170  D(61,60,72,74)        -42.1112         estimate D2E/DX2                !
 ! D171  D(60,61,62,64)        179.5529         estimate D2E/DX2                !
 ! D172  D(60,61,62,65)         -0.415          estimate D2E/DX2                !
 ! D173  D(63,61,62,64)         -0.4744         estimate D2E/DX2                !
 ! D174  D(63,61,62,65)        179.5577         estimate D2E/DX2                !
 ! D175  D(60,61,63,66)        179.5606         estimate D2E/DX2                !
 ! D176  D(60,61,63,67)         -0.4454         estimate D2E/DX2                !
 ! D177  D(62,61,63,66)         -0.4121         estimate D2E/DX2                !
 ! D178  D(62,61,63,67)        179.582          estimate D2E/DX2                !
 ! D179  D(61,62,64,68)          0.9067         estimate D2E/DX2                !
 ! D180  D(61,62,64,69)       -179.9698         estimate D2E/DX2                !
 ! D181  D(65,62,64,68)       -179.1257         estimate D2E/DX2                !
 ! D182  D(65,62,64,69)         -0.0022         estimate D2E/DX2                !
 ! D183  D(61,63,66,68)          0.8807         estimate D2E/DX2                !
 ! D184  D(61,63,66,70)        179.9682         estimate D2E/DX2                !
 ! D185  D(67,63,66,68)       -179.1133         estimate D2E/DX2                !
 ! D186  D(67,63,66,70)         -0.0258         estimate D2E/DX2                !
 ! D187  D(62,64,68,66)         -0.4408         estimate D2E/DX2                !
 ! D188  D(62,64,68,71)        179.5715         estimate D2E/DX2                !
 ! D189  D(69,64,68,66)       -179.5572         estimate D2E/DX2                !
 ! D190  D(69,64,68,71)          0.4551         estimate D2E/DX2                !
 ! D191  D(63,66,68,64)         -0.4522         estimate D2E/DX2                !
 ! D192  D(63,66,68,71)        179.5355         estimate D2E/DX2                !
 ! D193  D(70,66,68,64)       -179.5321         estimate D2E/DX2                !
 ! D194  D(70,66,68,71)          0.4555         estimate D2E/DX2                !
 ! D195  D(60,72,73,75)        179.4986         estimate D2E/DX2                !
 ! D196  D(60,72,73,76)         -0.4641         estimate D2E/DX2                !
 ! D197  D(74,72,73,75)         -0.5021         estimate D2E/DX2                !
 ! D198  D(74,72,73,76)        179.5352         estimate D2E/DX2                !
 ! D199  D(60,72,74,77)        179.6146         estimate D2E/DX2                !
 ! D200  D(60,72,74,78)         -0.3752         estimate D2E/DX2                !
 ! D201  D(73,72,74,77)         -0.3847         estimate D2E/DX2                !
 ! D202  D(73,72,74,78)        179.6255         estimate D2E/DX2                !
 ! D203  D(72,73,75,79)          0.911          estimate D2E/DX2                !
 ! D204  D(72,73,75,80)       -179.9862         estimate D2E/DX2                !
 ! D205  D(76,73,75,79)       -179.1267         estimate D2E/DX2                !
 ! D206  D(76,73,75,80)         -0.0238         estimate D2E/DX2                !
 ! D207  D(72,74,77,79)          0.8773         estimate D2E/DX2                !
 ! D208  D(72,74,77,81)        179.9896         estimate D2E/DX2                !
 ! D209  D(78,74,77,79)       -179.133          estimate D2E/DX2                !
 ! D210  D(78,74,77,81)         -0.0207         estimate D2E/DX2                !
 ! D211  D(73,75,79,77)         -0.4211         estimate D2E/DX2                !
 ! D212  D(73,75,79,82)        179.5491         estimate D2E/DX2                !
 ! D213  D(80,75,79,77)       -179.5165         estimate D2E/DX2                !
 ! D214  D(80,75,79,82)          0.4537         estimate D2E/DX2                !
 ! D215  D(74,77,79,75)         -0.4724         estimate D2E/DX2                !
 ! D216  D(74,77,79,82)        179.5574         estimate D2E/DX2                !
 ! D217  D(81,77,79,75)       -179.5773         estimate D2E/DX2                !
 ! D218  D(81,77,79,82)          0.4524         estimate D2E/DX2                !
 --------------------------------------------------------------------------------
 Trust Radius=3.00D-01 FncErr=1.00D-07 GrdErr=1.00D-06 EigMax=2.50D+02 EigMin=1.00D-04
 Number of steps in this run=    460 maximum allowed number of steps=    492.
 GradGradGradGradGradGradGradGradGradGradGradGradGradGradGradGradGradGrad

 Stoichiometry    C45H33N3O
 Framework group  C1[X(C45H33N3O)]
 Deg. of freedom   240
 Full point group                 C1      NOp   1
 Largest Abelian subgroup         C1      NOp   1
 Largest concise Abelian subgroup C1      NOp   1
                         Standard orientation:                         
 ---------------------------------------------------------------------
 Center     Atomic      Atomic             Coordinates (Angstroms)
 Number     Number       Type             X           Y           Z
 ---------------------------------------------------------------------
      1          6           0       -3.089402    0.386304    0.028596
      2          6           0       -5.078203    1.297703   -0.061204
      3          6           0       -5.289402   -0.068397    0.027396
      4          7           0       -4.010002   -0.645297    0.067596
      5          7           0       -3.726603    1.549004   -0.054504
      6          6           0       -6.535102   -0.853997    0.126096
      7          6           0       -7.457402   -0.565798    1.147196
      8          6           0       -6.841701   -1.877697   -0.786604
      9          6           0       -8.651602   -1.277398    1.249596
     10          1           0       -7.230402    0.224402    1.856596
     11          6           0       -8.033301   -2.593598   -0.677304
     12          1           0       -6.146101   -2.107797   -1.587704
     13          6           0       -8.942401   -2.295898    0.339496
     14          1           0       -9.352902   -1.039098    2.044796
     15          1           0       -8.254201   -3.380998   -1.393004
     16          1           0       -9.871901   -2.852798    0.421296
     17          6           0       -6.040103    2.409203   -0.166904
     18          6           0       -5.681703    3.676303    0.324596
     19          6           0       -7.298203    2.257202   -0.774204
     20          6           0       -6.560004    4.753403    0.225496
     21          1           0       -4.708303    3.804303    0.787096
     22          6           0       -8.175703    3.336102   -0.868804
     23          1           0       -7.584203    1.295702   -1.187104
     24          6           0       -7.812904    4.588102   -0.368304
     25          1           0       -6.264804    5.724403    0.614796
     26          1           0       -9.142703    3.199102   -1.345904
     27          1           0       -8.498004    5.428202   -0.445504
     28          6           0       -3.754101   -2.056696    0.073496
     29          6           0       -4.052801   -2.814597    1.208296
     30          6           0       -3.221701   -2.665796   -1.066404
     31          6           0       -3.810801   -4.188696    1.201596
     32          1           0       -4.470301   -2.326497    2.083096
     33          6           0       -2.975001   -4.038296   -1.062304
     34          1           0       -2.995501   -2.060996   -1.939104
     35          6           0       -3.269801   -4.801496    0.069696
     36          1           0       -4.043501   -4.778697    2.083496
     37          1           0       -2.554601   -4.510796   -1.945504
     38          1           0       -3.078800   -5.870996    0.069196
     39          6           0       -1.626302    0.302704    0.064796
     40          6           0       -0.910602   -0.817595    0.530096
     41          6           0       -0.868503    1.432705   -0.363304
     42          6           0        0.475398   -0.856595    0.531296
     43          1           0       -1.450302   -1.677196    0.906296
     44          6           0        0.530397    1.371505   -0.373304
     45          6           0        1.225098    0.240205    0.062996
     46          1           0        0.981098   -1.754195    0.872996
     47          1           0        1.059097    2.263505   -0.693204
     48          6           0        2.706998    0.205206    0.047796
     49          6           0        3.433098   -0.461894    1.049596
     50          6           0        3.443598    0.838806   -0.967904
     51          6           0        4.822998   -0.502294    1.037896
     52          1           0        2.900598   -0.947394    1.862296
     53          6           0        4.833898    0.817706   -0.981004
     54          1           0        2.917397    1.351006   -1.768304
     55          6           0        5.547898    0.142507    0.022396
     56          1           0        5.356198   -1.026993    1.824096
     57          1           0        5.375297    1.320607   -1.775804
     58          8           0       -1.428603    2.590304   -0.762704
     59          1           0       -2.406403    2.531404   -0.586504
     60          7           0        6.967198    0.113607    0.011896
     61          6           0        7.667398   -0.052093   -1.214704
     62          6           0        7.223598   -0.981793   -2.169204
     63          6           0        8.813798    0.710808   -1.490504
     64          6           0        7.907598   -1.134093   -3.373704
     65          1           0        6.342598   -1.580493   -1.960704
     66          6           0        9.501598    0.538108   -2.690104
     67          1           0        9.159097    1.436208   -0.760804
     68          6           0        9.052398   -0.380292   -3.641404
     69          1           0        7.549299   -1.858193   -4.100804
     70          1           0       10.386598    1.137808   -2.886604
     71          1           0        9.586898   -0.506792   -4.578604
     72          6           0        7.691298    0.257207    1.227496
     73          6           0        7.293897    1.202507    2.187196
     74          6           0        8.814998   -0.544092    1.486996
     75          6           0        8.000597    1.332007    3.381096
     76          1           0        6.430997    1.830907    1.990896
     77          6           0        9.526098   -0.394192    2.676096
     78          1           0        9.124598   -1.281092    0.752796
     79          6           0        9.122598    0.539608    3.632896
     80          1           0        7.678297    2.068907    4.112296
     81          1           0       10.393298   -1.023392    2.859896
     82          1           0        9.675198    0.648608    4.561696
 ---------------------------------------------------------------------
 Rotational constants (GHZ):           0.1266483           0.0201089           0.0190795
 Standard basis: 6-311G(d) (5D, 7F)
 There are  1030 symmetry adapted cartesian basis functions of A   symmetry.
 There are   981 symmetry adapted basis functions of A   symmetry.
   981 basis functions,  1733 primitive gaussians,  1030 cartesian basis functions
   166 alpha electrons      166 beta electrons
       nuclear repulsion energy      5266.0665242131 Hartrees.
 NAtoms=   82 NActive=   82 NUniq=   82 SFac= 1.00D+00 NAtFMM=   60 NAOKFM=T Big=T
 Integral buffers will be    131072 words long.
 Raffenetti 2 integral format.
 Two-electron integral symmetry is turned on.
 One-electron integrals computed using PRISM.
 NBasis=   981 RedAO= T EigKep=  1.53D-04  NBF=   981
 NBsUse=   981 1.00D-06 EigRej= -1.00D+00 NBFU=   981
 ExpMin= 1.03D-01 ExpMax= 8.59D+03 ExpMxC= 1.30D+03 IAcc=3 IRadAn=         5 AccDes= 0.00D+00
 Harris functional with IExCor= 1009 and IRadAn=       5 diagonalized for initial guess.
 HarFok:  IExCor= 1009 AccDes= 0.00D+00 IRadAn=         5 IDoV= 1 UseB2=F ITyADJ=14
 ICtDFT=  3500011 ScaDFX=  1.000000  1.000000  1.000000  1.000000
 FoFCou: FMM=F IPFlag=           0 FMFlag=      100000 FMFlg1=        2001
         NFxFlg=           0 DoJE=T BraDBF=F KetDBF=T FulRan=T
         wScrn=  0.000000 ICntrl=       500 IOpCl=  0 I1Cent=   200000004 NGrid=           0
         NMat0=    1 NMatS0=      1 NMatT0=    0 NMatD0=    1 NMtDS0=    0 NMtDT0=    0
 Petite list used in FoFCou.
 Requested convergence on RMS density matrix=1.00D-08 within 128 cycles.
 Requested convergence on MAX density matrix=1.00D-06.
 Requested convergence on             energy=1.00D-06.
 No special actions if energy rises.
 Integral accuracy reduced to 1.0D-05 until final iterations.
 Initial convergence to 1.0D-05 achieved.  Increase integral accuracy.
 SCF Done:  E(RM062X) =  -1973.80278400     A.U. after   15 cycles
            NFock= 15  Conv=0.69D-08     -V/T= 2.0043

 **********************************************************************

            Population analysis using the SCF Density.

 **********************************************************************

 Orbital symmetries:
       Occupied  (A) (A) (A) (A) (A) (A) (A) (A) (A) (A) (A) (A)
                 (A) (A) (A) (A) (A) (A) (A) (A) (A) (A) (A) (A)
                 (A) (A) (A) (A) (A) (A) (A) (A) (A) (A) (A) (A)
                 (A) (A) (A) (A) (A) (A) (A) (A) (A) (A) (A) (A)
                 (A) (A) (A) (A) (A) (A) (A) (A) (A) (A) (A) (A)
                 (A) (A) (A) (A) (A) (A) (A) (A) (A) (A) (A) (A)
                 (A) (A) (A) (A) (A) (A) (A) (A) (A) (A) (A) (A)
                 (A) (A) (A) (A) (A) (A) (A) (A) (A) (A) (A) (A)
                 (A) (A) (A) (A) (A) (A) (A) (A) (A) (A) (A) (A)
                 (A) (A) (A) (A) (A) (A) (A) (A) (A) (A) (A) (A)
                 (A) (A) (A) (A) (A) (A) (A) (A) (A) (A) (A) (A)
                 (A) (A) (A) (A) (A) (A) (A) (A) (A) (A) (A) (A)
                 (A) (A) (A) (A) (A) (A) (A) (A) (A) (A) (A) (A)
                 (A) (A) (A) (A) (A) (A) (A) (A) (A) (A)
       Virtual   (A) (A) (A) (A) (A) (A) (A) (A) (A) (A) (A) (A)
                 (A) (A) (A) (A) (A) (A) (A) (A) (A) (A) (A) (A)
                 (A) (A) (A) (A) (A) (A) (A) (A) (A) (A) (A) (A)
                 (A) (A) (A) (A) (A) (A) (A) (A) (A) (A) (A) (A)
                 (A) (A) (A) (A) (A) (A) (A) (A) (A) (A) (A) (A)
                 (A) (A) (A) (A) (A) (A) (A) (A) (A) (A) (A) (A)
                 (A) (A) (A) (A) (A) (A) (A) (A) (A) (A) (A) (A)
                 (A) (A) (A) (A) (A) (A) (A) (A) (A) (A) (A) (A)
                 (A) (A) (A) (A) (A) (A) (A) (A) (A) (A) (A) (A)
                 (A) (A) (A) (A) (A) (A) (A) (A) (A) (A) (A) (A)
                 (A) (A) (A) (A) (A) (A) (A) (A) (A) (A) (A) (A)
                 (A) (A) (A) (A) (A) (A) (A) (A) (A) (A) (A) (A)
                 (A) (A) (A) (A) (A) (A) (A) (A) (A) (A) (A) (A)
                 (A) (A) (A) (A) (A) (A) (A) (A) (A) (A) (A) (A)
                 (A) (A) (A) (A) (A) (A) (A) (A) (A) (A) (A) (A)
                 (A) (A) (A) (A) (A) (A) (A) (A) (A) (A) (A) (A)
                 (A) (A) (A) (A) (A) (A) (A) (A) (A) (A) (A) (A)
                 (A) (A) (A) (A) (A) (A) (A) (A) (A) (A) (A) (A)
                 (A) (A) (A) (A) (A) (A) (A) (A) (A) (A) (A) (A)
                 (A) (A) (A) (A) (A) (A) (A) (A) (A) (A) (A) (A)
                 (A) (A) (A) (A) (A) (A) (A) (A) (A) (A) (A) (A)
                 (A) (A) (A) (A) (A) (A) (A) (A) (A) (A) (A) (A)
                 (A) (A) (A) (A) (A) (A) (A) (A) (A) (A) (A) (A)
                 (A) (A) (A) (A) (A) (A) (A) (A) (A) (A) (A) (A)
                 (A) (A) (A) (A) (A) (A) (A) (A) (A) (A) (A) (A)
                 (A) (A) (A) (A) (A) (A) (A) (A) (A) (A) (A) (A)
                 (A) (A) (A) (A) (A) (A) (A) (A) (A) (A) (A) (A)
                 (A) (A) (A) (A) (A) (A) (A) (A) (A) (A) (A) (A)
                 (A) (A) (A) (A) (A) (A) (A) (A) (A) (A) (A) (A)
                 (A) (A) (A) (A) (A) (A) (A) (A) (A) (A) (A) (A)
                 (A) (A) (A) (A) (A) (A) (A) (A) (A) (A) (A) (A)
                 (A) (A) (A) (A) (A) (A) (A) (A) (A) (A) (A) (A)
                 (A) (A) (A) (A) (A) (A) (A) (A) (A) (A) (A) (A)
                 (A) (A) (A) (A) (A) (A) (A) (A) (A) (A) (A) (A)
                 (A) (A) (A) (A) (A) (A) (A) (A) (A) (A) (A) (A)
                 (A) (A) (A) (A) (A) (A) (A) (A) (A) (A) (A) (A)
                 (A) (A) (A) (A) (A) (A) (A) (A) (A) (A) (A) (A)
                 (A) (A) (A) (A) (A) (A) (A) (A) (A) (A) (A) (A)
                 (A) (A) (A) (A) (A) (A) (A) (A) (A) (A) (A) (A)
                 (A) (A) (A) (A) (A) (A) (A) (A) (A) (A) (A) (A)
                 (A) (A) (A) (A) (A) (A) (A) (A) (A) (A) (A) (A)
                 (A) (A) (A) (A) (A) (A) (A) (A) (A) (A) (A) (A)
                 (A) (A) (A) (A) (A) (A) (A) (A) (A) (A) (A) (A)
                 (A) (A) (A) (A) (A) (A) (A) (A) (A) (A) (A) (A)
                 (A) (A) (A) (A) (A) (A) (A) (A) (A) (A) (A) (A)
                 (A) (A) (A) (A) (A) (A) (A) (A) (A) (A) (A) (A)
                 (A) (A) (A) (A) (A) (A) (A) (A) (A) (A) (A) (A)
                 (A) (A) (A) (A) (A) (A) (A) (A) (A) (A) (A) (A)
                 (A) (A) (A) (A) (A) (A) (A) (A) (A) (A) (A) (A)
                 (A) (A) (A) (A) (A) (A) (A) (A) (A) (A) (A) (A)
                 (A) (A) (A) (A) (A) (A) (A) (A) (A) (A) (A) (A)
                 (A) (A) (A) (A) (A) (A) (A) (A) (A) (A) (A) (A)
                 (A) (A) (A) (A) (A) (A) (A) (A) (A) (A) (A) (A)
                 (A) (A) (A) (A) (A) (A) (A) (A) (A) (A) (A) (A)
                 (A) (A) (A) (A) (A) (A) (A) (A) (A) (A) (A) (A)
                 (A) (A) (A) (A) (A) (A) (A) (A) (A) (A) (A) (A)
                 (A) (A) (A) (A) (A) (A) (A) (A) (A) (A) (A) (A)
                 (A) (A) (A) (A) (A) (A) (A) (A) (A) (A) (A) (A)
                 (A) (A) (A) (A) (A) (A) (A) (A) (A) (A) (A) (A)
                 (A) (A) (A) (A) (A) (A) (A) (A) (A) (A) (A) (A)
                 (A) (A) (A) (A) (A) (A) (A) (A) (A) (A) (A) (A)
                 (A) (A) (A) (A) (A) (A) (A) (A) (A) (A) (A) (A)
                 (A) (A) (A) (A) (A) (A) (A) (A) (A) (A) (A) (A)
                 (A) (A) (A) (A) (A) (A) (A) (A) (A) (A) (A) (A)
                 (A) (A) (A) (A) (A) (A) (A) (A) (A) (A) (A) (A)
                 (A) (A) (A) (A) (A) (A) (A) (A) (A) (A) (A) (A)
                 (A) (A) (A) (A) (A) (A) (A) (A) (A) (A) (A) (A)
                 (A) (A) (A) (A) (A) (A) (A) (A) (A) (A) (A)
 The electronic state is 1-A.
 Alpha  occ. eigenvalues --  -19.61948 -14.82453 -14.77679 -14.74558 -10.62322
 Alpha  occ. eigenvalues --  -10.60918 -10.60581 -10.59074 -10.58779 -10.58776
 Alpha  occ. eigenvalues --  -10.58767 -10.57587 -10.57080 -10.56799 -10.56784
 Alpha  occ. eigenvalues --  -10.56656 -10.56629 -10.56528 -10.55828 -10.55622
 Alpha  occ. eigenvalues --  -10.55505 -10.55492 -10.55475 -10.55468 -10.55391
 Alpha  occ. eigenvalues --  -10.55326 -10.55040 -10.54715 -10.54502 -10.54497
 Alpha  occ. eigenvalues --  -10.54495 -10.54474 -10.54473 -10.54410 -10.54215
 Alpha  occ. eigenvalues --  -10.54206 -10.54204 -10.54192 -10.54183 -10.54160
 Alpha  occ. eigenvalues --  -10.54118 -10.54067 -10.54028 -10.54013 -10.54013
 Alpha  occ. eigenvalues --  -10.53964 -10.53850 -10.53364 -10.53117  -1.16652
 Alpha  occ. eigenvalues --   -1.14579  -1.07741  -1.02406  -0.97657  -0.97173
 Alpha  occ. eigenvalues --   -0.96989  -0.96174  -0.95716  -0.95346  -0.93916
 Alpha  occ. eigenvalues --   -0.90441  -0.87653  -0.86738  -0.86555  -0.85624
 Alpha  occ. eigenvalues --   -0.85372  -0.85220  -0.84665  -0.84347  -0.84145
 Alpha  occ. eigenvalues --   -0.83906  -0.83682  -0.83023  -0.81095  -0.79014
 Alpha  occ. eigenvalues --   -0.74294  -0.72964  -0.72541  -0.71477  -0.71387
 Alpha  occ. eigenvalues --   -0.70362  -0.69798  -0.69735  -0.68746  -0.68703
 Alpha  occ. eigenvalues --   -0.68522  -0.67831  -0.67100  -0.66095  -0.65181
 Alpha  occ. eigenvalues --   -0.64605  -0.63123  -0.61295  -0.61164  -0.60131
 Alpha  occ. eigenvalues --   -0.59766  -0.59432  -0.57704  -0.57114  -0.56385
 Alpha  occ. eigenvalues --   -0.55764  -0.55560  -0.55204  -0.54359  -0.54124
 Alpha  occ. eigenvalues --   -0.53332  -0.53144  -0.52713  -0.52414  -0.51950
 Alpha  occ. eigenvalues --   -0.51810  -0.51444  -0.51275  -0.51007  -0.50609
 Alpha  occ. eigenvalues --   -0.50368  -0.49819  -0.49710  -0.49540  -0.49327
 Alpha  occ. eigenvalues --   -0.49073  -0.48891  -0.48769  -0.48511  -0.48353
 Alpha  occ. eigenvalues --   -0.47641  -0.46480  -0.45709  -0.45193  -0.45000
 Alpha  occ. eigenvalues --   -0.44850  -0.44097  -0.43981  -0.43946  -0.43810
 Alpha  occ. eigenvalues --   -0.42951  -0.42782  -0.42413  -0.42008  -0.41795
 Alpha  occ. eigenvalues --   -0.41451  -0.41193  -0.40717  -0.40577  -0.40248
 Alpha  occ. eigenvalues --   -0.40075  -0.39792  -0.39294  -0.37229  -0.36454
 Alpha  occ. eigenvalues --   -0.36084  -0.35167  -0.32970  -0.32585  -0.32028
 Alpha  occ. eigenvalues --   -0.31691  -0.31556  -0.31473  -0.30839  -0.30420
 Alpha  occ. eigenvalues --   -0.30280  -0.30169  -0.28988  -0.27489  -0.24801
 Alpha  occ. eigenvalues --   -0.22939
 Alpha virt. eigenvalues --   -0.02195  -0.00746  -0.00267   0.00386   0.00892
 Alpha virt. eigenvalues --    0.01342   0.01451   0.02101   0.02735   0.03305
 Alpha virt. eigenvalues --    0.03412   0.03508   0.04526   0.06109   0.06345
 Alpha virt. eigenvalues --    0.07522   0.07664   0.08807   0.08831   0.09195
 Alpha virt. eigenvalues --    0.09308   0.09954   0.10334   0.10636   0.10965
 Alpha virt. eigenvalues --    0.11315   0.11347   0.11436   0.11574   0.11787
 Alpha virt. eigenvalues --    0.12388   0.12533   0.13071   0.13474   0.13494
 Alpha virt. eigenvalues --    0.14066   0.14231   0.14757   0.15038   0.15324
 Alpha virt. eigenvalues --    0.15498   0.15774   0.15882   0.16079   0.16638
 Alpha virt. eigenvalues --    0.16796   0.17709   0.17956   0.18308   0.18702
 Alpha virt. eigenvalues --    0.18845   0.19737   0.20154   0.20800   0.21515
 Alpha virt. eigenvalues --    0.22073   0.22673   0.23118   0.23420   0.25524
 Alpha virt. eigenvalues --    0.26087   0.26320   0.26620   0.27068   0.27782
 Alpha virt. eigenvalues --    0.27968   0.28116   0.29230   0.29352   0.29939
 Alpha virt. eigenvalues --    0.30084   0.30247   0.30280   0.30749   0.30984
 Alpha virt. eigenvalues --    0.31195   0.31266   0.31621   0.31736   0.31982
 Alpha virt. eigenvalues --    0.32233   0.32580   0.32801   0.33043   0.33234
 Alpha virt. eigenvalues --    0.33419   0.33608   0.33872   0.34299   0.34820
 Alpha virt. eigenvalues --    0.35276   0.35760   0.36516   0.36599   0.36976
 Alpha virt. eigenvalues --    0.37821   0.38343   0.38709   0.38898   0.39139
 Alpha virt. eigenvalues --    0.39324   0.39701   0.40660   0.40810   0.41067
 Alpha virt. eigenvalues --    0.41470   0.41554   0.41760   0.42353   0.42397
 Alpha virt. eigenvalues --    0.42627   0.42759   0.43000   0.43131   0.43284
 Alpha virt. eigenvalues --    0.43316   0.43616   0.44034   0.44204   0.44226
 Alpha virt. eigenvalues --    0.44464   0.44564   0.44936   0.45016   0.45206
 Alpha virt. eigenvalues --    0.45614   0.45912   0.46027   0.46472   0.46496
 Alpha virt. eigenvalues --    0.46693   0.46858   0.46904   0.47288   0.47325
 Alpha virt. eigenvalues --    0.47405   0.47577   0.47734   0.47994   0.48221
 Alpha virt. eigenvalues --    0.48443   0.48526   0.48716   0.48810   0.48904
 Alpha virt. eigenvalues --    0.49118   0.49452   0.49838   0.49907   0.50034
 Alpha virt. eigenvalues --    0.50323   0.50756   0.51228   0.51426   0.51746
 Alpha virt. eigenvalues --    0.52152   0.52160   0.52489   0.52743   0.52977
 Alpha virt. eigenvalues --    0.53541   0.53906   0.54340   0.54773   0.55171
 Alpha virt. eigenvalues --    0.55238   0.55471   0.56097   0.56616   0.57150
 Alpha virt. eigenvalues --    0.57688   0.57784   0.58089   0.58577   0.58701
 Alpha virt. eigenvalues --    0.59283   0.59407   0.59613   0.59823   0.60014
 Alpha virt. eigenvalues --    0.60172   0.60514   0.60646   0.61120   0.61422
 Alpha virt. eigenvalues --    0.61568   0.61984   0.62489   0.62581   0.63024
 Alpha virt. eigenvalues --    0.63330   0.63361   0.63515   0.64270   0.64721
 Alpha virt. eigenvalues --    0.64945   0.65096   0.65258   0.65479   0.65645
 Alpha virt. eigenvalues --    0.65823   0.65999   0.66155   0.66300   0.66775
 Alpha virt. eigenvalues --    0.66797   0.67081   0.67330   0.67477   0.67521
 Alpha virt. eigenvalues --    0.67852   0.67911   0.68121   0.68321   0.68761
 Alpha virt. eigenvalues --    0.68887   0.69235   0.69419   0.69619   0.69730
 Alpha virt. eigenvalues --    0.69936   0.70134   0.70497   0.70670   0.70761
 Alpha virt. eigenvalues --    0.71377   0.71413   0.71747   0.71998   0.72476
 Alpha virt. eigenvalues --    0.72760   0.73388   0.73742   0.74106   0.74852
 Alpha virt. eigenvalues --    0.75346   0.75602   0.76453   0.76698   0.77029
 Alpha virt. eigenvalues --    0.77590   0.78108   0.78441   0.78549   0.78896
 Alpha virt. eigenvalues --    0.79248   0.79709   0.79945   0.80171   0.80725
 Alpha virt. eigenvalues --    0.81165   0.81533   0.81571   0.82175   0.83167
 Alpha virt. eigenvalues --    0.83259   0.83530   0.84116   0.84405   0.84907
 Alpha virt. eigenvalues --    0.85172   0.85359   0.85610   0.85653   0.86065
 Alpha virt. eigenvalues --    0.86406   0.86678   0.86942   0.87152   0.87346
 Alpha virt. eigenvalues --    0.87539   0.87912   0.88681   0.89006   0.89241
 Alpha virt. eigenvalues --    0.89557   0.89816   0.89941   0.90018   0.90101
 Alpha virt. eigenvalues --    0.90548   0.90965   0.91114   0.91717   0.92557
 Alpha virt. eigenvalues --    0.92573   0.93157   0.93603   0.94554   0.94893
 Alpha virt. eigenvalues --    0.95178   0.96090   0.96335   0.96706   0.96881
 Alpha virt. eigenvalues --    0.97780   0.97808   0.98367   0.98770   0.99291
 Alpha virt. eigenvalues --    0.99608   1.00071   1.01134   1.01671   1.02204
 Alpha virt. eigenvalues --    1.02802   1.03080   1.03490   1.03652   1.03852
 Alpha virt. eigenvalues --    1.04624   1.05194   1.05371   1.05907   1.06216
 Alpha virt. eigenvalues --    1.06674   1.07126   1.07971   1.08307   1.09106
 Alpha virt. eigenvalues --    1.09545   1.10482   1.10973   1.12411   1.12507
 Alpha virt. eigenvalues --    1.12734   1.13835   1.14021   1.14368   1.14828
 Alpha virt. eigenvalues --    1.15385   1.16075   1.16380   1.16891   1.16974
 Alpha virt. eigenvalues --    1.17454   1.18852   1.19303   1.21049   1.21954
 Alpha virt. eigenvalues --    1.22411   1.22825   1.23855   1.24282   1.24941
 Alpha virt. eigenvalues --    1.25252   1.25301   1.25416   1.25767   1.25836
 Alpha virt. eigenvalues --    1.26071   1.26213   1.26481   1.26575   1.26732
 Alpha virt. eigenvalues --    1.27408   1.27681   1.27873   1.28112   1.28289
 Alpha virt. eigenvalues --    1.29133   1.29434   1.29863   1.30215   1.30406
 Alpha virt. eigenvalues --    1.30673   1.31060   1.31233   1.31791   1.32186
 Alpha virt. eigenvalues --    1.32710   1.33411   1.34896   1.35234   1.37794
 Alpha virt. eigenvalues --    1.38972   1.39241   1.41812   1.42123   1.43325
 Alpha virt. eigenvalues --    1.44690   1.44989   1.45218   1.45832   1.46065
 Alpha virt. eigenvalues --    1.46284   1.47553   1.48092   1.48817   1.49639
 Alpha virt. eigenvalues --    1.49798   1.50139   1.50639   1.50925   1.51444
 Alpha virt. eigenvalues --    1.51954   1.52250   1.52516   1.52905   1.52990
 Alpha virt. eigenvalues --    1.53452   1.53835   1.54358   1.54657   1.55064
 Alpha virt. eigenvalues --    1.55593   1.55847   1.55889   1.56049   1.57020
 Alpha virt. eigenvalues --    1.57205   1.57650   1.58401   1.59089   1.60154
 Alpha virt. eigenvalues --    1.61721   1.62639   1.63370   1.63940   1.65029
 Alpha virt. eigenvalues --    1.65685   1.66711   1.69362   1.70111   1.71086
 Alpha virt. eigenvalues --    1.71217   1.72181   1.72239   1.72685   1.73301
 Alpha virt. eigenvalues --    1.73986   1.74707   1.75481   1.75629   1.75777
 Alpha virt. eigenvalues --    1.76673   1.77080   1.77182   1.77831   1.78667
 Alpha virt. eigenvalues --    1.78776   1.79466   1.79826   1.80048   1.80151
 Alpha virt. eigenvalues --    1.80967   1.81239   1.81688   1.82000   1.82222
 Alpha virt. eigenvalues --    1.82580   1.82626   1.83054   1.83594   1.83690
 Alpha virt. eigenvalues --    1.84026   1.84412   1.84923   1.85183   1.85385
 Alpha virt. eigenvalues --    1.85462   1.86585   1.86917   1.87217   1.87974
 Alpha virt. eigenvalues --    1.88633   1.89746   1.90405   1.91165   1.92185
 Alpha virt. eigenvalues --    1.92346   1.92957   1.93196   1.93752   1.94176
 Alpha virt. eigenvalues --    1.94399   1.94780   1.95092   1.95205   1.95251
 Alpha virt. eigenvalues --    1.95467   1.95568   1.95794   1.96029   1.96221
 Alpha virt. eigenvalues --    1.96271   1.96383   1.96627   1.96892   1.97225
 Alpha virt. eigenvalues --    1.97526   1.97798   1.98415   1.98859   1.99734
 Alpha virt. eigenvalues --    1.99956   2.00535   2.00751   2.01410   2.02424
 Alpha virt. eigenvalues --    2.03002   2.04030   2.04427   2.04730   2.05415
 Alpha virt. eigenvalues --    2.05996   2.07767   2.09730   2.11418   2.12638
 Alpha virt. eigenvalues --    2.15069   2.15341   2.18089   2.18510   2.19491
 Alpha virt. eigenvalues --    2.19976   2.20094   2.21685   2.22986   2.23561
 Alpha virt. eigenvalues --    2.24245   2.24969   2.25337   2.26109   2.26459
 Alpha virt. eigenvalues --    2.26961   2.27274   2.27486   2.27713   2.28605
 Alpha virt. eigenvalues --    2.28650   2.29782   2.30214   2.30268   2.30350
 Alpha virt. eigenvalues --    2.30709   2.31051   2.31812   2.32128   2.32301
 Alpha virt. eigenvalues --    2.32537   2.33374   2.33879   2.34073   2.34236
 Alpha virt. eigenvalues --    2.34606   2.35013   2.35648   2.35937   2.36493
 Alpha virt. eigenvalues --    2.36778   2.36823   2.37851   2.38256   2.38465
 Alpha virt. eigenvalues --    2.38728   2.39051   2.39507   2.40005   2.40313
 Alpha virt. eigenvalues --    2.41200   2.41665   2.41953   2.42710   2.43338
 Alpha virt. eigenvalues --    2.44051   2.44608   2.48372   2.49675   2.51784
 Alpha virt. eigenvalues --    2.56372   2.58106   2.58960   2.59106   2.60501
 Alpha virt. eigenvalues --    2.60814   2.62082   2.62817   2.63730   2.64325
 Alpha virt. eigenvalues --    2.64503   2.64593   2.65110   2.65760   2.65801
 Alpha virt. eigenvalues --    2.66923   2.67876   2.68262   2.68516   2.69641
 Alpha virt. eigenvalues --    2.69893   2.71254   2.72462   2.72570   2.73880
 Alpha virt. eigenvalues --    2.74323   2.74690   2.75214   2.76315   2.76510
 Alpha virt. eigenvalues --    2.76795   2.77031   2.77472   2.77578   2.78101
 Alpha virt. eigenvalues --    2.78515   2.79516   2.79705   2.81296   2.81870
 Alpha virt. eigenvalues --    2.82300   2.82751   2.83039   2.83380   2.83626
 Alpha virt. eigenvalues --    2.84961   2.85723   2.85838   2.86788   2.87190
 Alpha virt. eigenvalues --    2.88794   2.89968   2.90865   2.92005   2.92632
 Alpha virt. eigenvalues --    2.93123   2.94045   2.94842   2.94963   2.95163
 Alpha virt. eigenvalues --    2.95798   2.96846   2.97147   2.98449   2.98656
 Alpha virt. eigenvalues --    2.99865   2.99979   3.00632   3.01415   3.03189
 Alpha virt. eigenvalues --    3.05787   3.07250   3.07819   3.08488   3.09524
 Alpha virt. eigenvalues --    3.10078   3.11402   3.11871   3.12087   3.12175
 Alpha virt. eigenvalues --    3.12911   3.13046   3.14644   3.16122   3.17694
 Alpha virt. eigenvalues --    3.19016   3.20013   3.20923   3.21389   3.22150
 Alpha virt. eigenvalues --    3.24367   3.25578   3.25877   3.26140   3.27635
 Alpha virt. eigenvalues --    3.30496   3.30922   3.31399   3.31801   3.31956
 Alpha virt. eigenvalues --    3.32912   3.32986   3.33742   3.33855   3.34403
 Alpha virt. eigenvalues --    3.34542   3.34643   3.34882   3.35269   3.35520
 Alpha virt. eigenvalues --    3.35597   3.35691   3.35904   3.36558   3.36732
 Alpha virt. eigenvalues --    3.37040   3.37081   3.37434   3.37853   3.38741
 Alpha virt. eigenvalues --    3.38782   3.38829   3.39227   3.41101   3.42181
 Alpha virt. eigenvalues --    3.42388   3.44226   3.44958   3.45913   3.46500
 Alpha virt. eigenvalues --    3.46727   3.47928   3.49156   3.50183   3.51642
 Alpha virt. eigenvalues --    3.52196   3.55266   3.56565   3.57603   3.58988
 Alpha virt. eigenvalues --    3.59767   3.60823   3.60891   3.61374   3.63101
 Alpha virt. eigenvalues --    3.63717   3.65603   3.65989   3.66127   3.67973
 Alpha virt. eigenvalues --    3.70606   3.71419   3.73285   3.77194   3.78075
 Alpha virt. eigenvalues --    3.80795   3.82535   3.85810   3.87539   3.92302
 Alpha virt. eigenvalues --    3.93676   3.97076   3.97951   3.98510   3.98910
 Alpha virt. eigenvalues --    3.99764   3.99856   4.00025   4.00766   4.01991
 Alpha virt. eigenvalues --    4.02229   4.03416   4.06451   4.06889   4.15117
 Alpha virt. eigenvalues --    4.20724   4.25279   4.29375   4.51253   4.53313
 Alpha virt. eigenvalues --    4.62436   4.78433   4.79591   4.80074   4.80618
 Alpha virt. eigenvalues --    4.81060   4.81254   4.83003   4.94871   4.98209
 Alpha virt. eigenvalues --    5.10007   5.10946   5.13854   5.22037   5.31969
 Alpha virt. eigenvalues --    5.70730  23.30810  23.32376  23.35025  23.35462
 Alpha virt. eigenvalues --   23.37304  23.39059  23.51986  23.78632  23.86623
 Alpha virt. eigenvalues --   23.86789  23.87477  23.87681  23.88258  23.88285
 Alpha virt. eigenvalues --   23.88320  23.88524  23.91711  23.91911  23.92387
 Alpha virt. eigenvalues --   23.92510  23.93648  23.94967  23.97079  24.05342
 Alpha virt. eigenvalues --   24.07877  24.08193  24.08803  24.09088  24.09093
 Alpha virt. eigenvalues --   24.09400  24.09536  24.10567  24.11719  24.12133
 Alpha virt. eigenvalues --   24.12231  24.12770  24.13699  24.16215  24.19103
 Alpha virt. eigenvalues --   24.19310  24.20358  24.20976  24.21015  24.21191
 Alpha virt. eigenvalues --   24.21496  35.61273  35.74004  35.79251  50.05815
          Condensed to atoms (all electrons):
 Mulliken charges:
               1
     1  C    0.530896
     2  C    0.026655
     3  C    0.197221
     4  N   -0.520817
     5  N   -0.562388
     6  C   -0.095131
     7  C   -0.191880
     8  C   -0.195816
     9  C   -0.214995
    10  H    0.245632
    11  C   -0.213627
    12  H    0.243963
    13  C   -0.216842
    14  H    0.227469
    15  H    0.225342
    16  H    0.225759
    17  C   -0.053107
    18  C   -0.188103
    19  C   -0.201010
    20  C   -0.227221
    21  H    0.242800
    22  C   -0.229676
    23  H    0.251415
    24  C   -0.214190
    25  H    0.222057
    26  H    0.220019
    27  H    0.220321
    28  C    0.025715
    29  C   -0.176196
    30  C   -0.187483
    31  C   -0.210981
    32  H    0.248057
    33  C   -0.209338
    34  H    0.249681
    35  C   -0.212440
    36  H    0.233941
    37  H    0.235139
    38  H    0.231565
    39  C   -0.155288
    40  C   -0.200085
    41  C    0.301764
    42  C   -0.252732
    43  H    0.261904
    44  C   -0.271627
    45  C    0.002638
    46  H    0.227190
    47  H    0.246050
    48  C   -0.037345
    49  C   -0.208993
    50  C   -0.206682
    51  C   -0.247856
    52  H    0.236144
    53  C   -0.247089
    54  H    0.241300
    55  C    0.174206
    56  H    0.248781
    57  H    0.250012
    58  O   -0.591979
    59  H    0.438941
    60  N   -0.572621
    61  C    0.155574
    62  C   -0.237814
    63  C   -0.236641
    64  C   -0.214120
    65  H    0.248478
    66  C   -0.214681
    67  H    0.248518
    68  C   -0.226299
    69  H    0.223140
    70  H    0.223394
    71  H    0.220722
    72  C    0.155582
    73  C   -0.238418
    74  C   -0.236944
    75  C   -0.214290
    76  H    0.250574
    77  C   -0.214975
    78  H    0.247850
    79  C   -0.226410
    80  H    0.224101
    81  H    0.222909
    82  H    0.220711
 Sum of Mulliken charges =  -0.00000
 Mulliken charges with hydrogens summed into heavy atoms:
               1
     1  C    0.530896
     2  C    0.026655
     3  C    0.197221
     4  N   -0.520817
     5  N   -0.562388
     6  C   -0.095131
     7  C    0.053753
     8  C    0.048147
     9  C    0.012474
    11  C    0.011714
    13  C    0.008917
    17  C   -0.053107
    18  C    0.054697
    19  C    0.050406
    20  C   -0.005163
    22  C   -0.009657
    24  C    0.006130
    28  C    0.025715
    29  C    0.071861
    30  C    0.062198
    31  C    0.022960
    33  C    0.025801
    35  C    0.019126
    39  C   -0.155288
    40  C    0.061820
    41  C    0.301764
    42  C   -0.025542
    44  C   -0.025577
    45  C    0.002638
    48  C   -0.037345
    49  C    0.027151
    50  C    0.034619
    51  C    0.000925
    53  C    0.002923
    55  C    0.174206
    58  O   -0.153038
    60  N   -0.572621
    61  C    0.155574
    62  C    0.010664
    63  C    0.011877
    64  C    0.009020
    66  C    0.008713
    68  C   -0.005577
    72  C    0.155582
    73  C    0.012156
    74  C    0.010906
    75  C    0.009810
    77  C    0.007935
    79  C   -0.005699
 Electronic spatial extent (au):  <R**2>=          53633.8830
 Charge=              0.0000 electrons
 Dipole moment (field-independent basis, Debye):
    X=             -2.1084    Y=             -5.0888    Z=              0.6981  Tot=              5.5524
 Quadrupole moment (field-independent basis, Debye-Ang):
   XX=           -240.9135   YY=           -266.3523   ZZ=           -271.9850
   XY=             15.2187   XZ=             -3.7766   YZ=              5.2855
 Traceless Quadrupole moment (field-independent basis, Debye-Ang):
   XX=             18.8367   YY=             -6.6020   ZZ=            -12.2347
   XY=             15.2187   XZ=             -3.7766   YZ=              5.2855
 Octapole moment (field-independent basis, Debye-Ang**2):
  XXX=           -125.2641  YYY=            -46.1737  ZZZ=              0.7596  XYY=            -94.2459
[...]
 Alpha virt. eigenvalues --    0.44619   0.44761   0.45146   0.45224   0.45500
 Alpha virt. eigenvalues --    0.45810   0.45986   0.46081   0.46578   0.46702
 Alpha virt. eigenvalues --    0.46792   0.46976   0.47255   0.47307   0.47456
 Alpha virt. eigenvalues --    0.47480   0.47751   0.48004   0.48300   0.48479
 Alpha virt. eigenvalues --    0.48614   0.48707   0.48851   0.49112   0.49286
 Alpha virt. eigenvalues --    0.49591   0.49943   0.50043   0.50120   0.50342
 Alpha virt. eigenvalues --    0.50652   0.51001   0.51380   0.51749   0.52088
 Alpha virt. eigenvalues --    0.52191   0.52600   0.52623   0.52875   0.53227
 Alpha virt. eigenvalues --    0.53804   0.54197   0.54497   0.55092   0.55507
 Alpha virt. eigenvalues --    0.55579   0.55726   0.56555   0.57134   0.57350
 Alpha virt. eigenvalues --    0.57661   0.58096   0.58410   0.58892   0.59140
 Alpha virt. eigenvalues --    0.59312   0.59584   0.59780   0.60151   0.60281
 Alpha virt. eigenvalues --    0.60438   0.60697   0.60946   0.61287   0.61637
 Alpha virt. eigenvalues --    0.61657   0.62231   0.62619   0.62829   0.63196
 Alpha virt. eigenvalues --    0.63706   0.63769   0.63920   0.64505   0.64958
 Alpha virt. eigenvalues --    0.65078   0.65299   0.65529   0.65586   0.65754
 Alpha virt. eigenvalues --    0.65995   0.66209   0.66352   0.66724   0.66773
 Alpha virt. eigenvalues --    0.66857   0.67164   0.67340   0.67532   0.67683
 Alpha virt. eigenvalues --    0.67867   0.68013   0.68285   0.68384   0.68561
 Alpha virt. eigenvalues --    0.68971   0.69302   0.69390   0.69509   0.69825
 Alpha virt. eigenvalues --    0.70242   0.70372   0.70724   0.70787   0.70822
 Alpha virt. eigenvalues --    0.71248   0.71811   0.72210   0.72448   0.72981
 Alpha virt. eigenvalues --    0.73140   0.73715   0.73903   0.74452   0.74889
 Alpha virt. eigenvalues --    0.75171   0.75700   0.76010   0.76934   0.77049
 Alpha virt. eigenvalues --    0.77874   0.78197   0.78421   0.78531   0.78784
 Alpha virt. eigenvalues --    0.79384   0.79791   0.79903   0.80257   0.80953
 Alpha virt. eigenvalues --    0.81186   0.81824   0.81975   0.82473   0.83309
 Alpha virt. eigenvalues --    0.83641   0.83957   0.83959   0.84523   0.85175
 Alpha virt. eigenvalues --    0.85453   0.85690   0.85892   0.86113   0.86367
 Alpha virt. eigenvalues --    0.86802   0.87029   0.87665   0.87813   0.87979
 Alpha virt. eigenvalues --    0.88149   0.88538   0.88723   0.89402   0.89501
 Alpha virt. eigenvalues --    0.89763   0.90154   0.90200   0.90481   0.90588
 Alpha virt. eigenvalues --    0.91469   0.91582   0.91870   0.92647   0.92894
 Alpha virt. eigenvalues --    0.93125   0.93465   0.94040   0.95265   0.95414
 Alpha virt. eigenvalues --    0.96014   0.96569   0.96939   0.97151   0.97535
 Alpha virt. eigenvalues --    0.97988   0.98342   0.98834   0.99280   0.99690
 Alpha virt. eigenvalues --    0.99939   1.00503   1.01167   1.02087   1.02703
 Alpha virt. eigenvalues --    1.03037   1.03387   1.03825   1.03933   1.04164
 Alpha virt. eigenvalues --    1.05154   1.05441   1.05564   1.05855   1.06786
 Alpha virt. eigenvalues --    1.07147   1.07940   1.08509   1.08654   1.09573
 Alpha virt. eigenvalues --    1.10086   1.10396   1.11281   1.12598   1.12851
 Alpha virt. eigenvalues --    1.13339   1.13494   1.14146   1.14683   1.14929
 Alpha virt. eigenvalues --    1.16055   1.16454   1.16696   1.17159   1.17474
 Alpha virt. eigenvalues --    1.17925   1.18957   1.19403   1.21136   1.22489
 Alpha virt. eigenvalues --    1.23102   1.23354   1.23889   1.24633   1.25020
 Alpha virt. eigenvalues --    1.25207   1.25409   1.25786   1.25974   1.26005
 Alpha virt. eigenvalues --    1.26398   1.26711   1.26806   1.26823   1.27124
 Alpha virt. eigenvalues --    1.27967   1.28274   1.28307   1.28592   1.28971
 Alpha virt. eigenvalues --    1.29602   1.29771   1.29938   1.30122   1.30517
 Alpha virt. eigenvalues --    1.30687   1.30990   1.31630   1.32042   1.32401
 Alpha virt. eigenvalues --    1.32779   1.34227   1.35087   1.35942   1.37508
 Alpha virt. eigenvalues --    1.39190   1.39523   1.41784   1.42430   1.43773
 Alpha virt. eigenvalues --    1.45210   1.45538   1.45804   1.46095   1.46615
 Alpha virt. eigenvalues --    1.46727   1.47998   1.48785   1.49117   1.49895
 Alpha virt. eigenvalues --    1.50271   1.50669   1.50941   1.51352   1.51824
 Alpha virt. eigenvalues --    1.52167   1.52733   1.52883   1.53292   1.53491
 Alpha virt. eigenvalues --    1.54048   1.54287   1.54870   1.55014   1.55285
 Alpha virt. eigenvalues --    1.56076   1.56315   1.56434   1.56681   1.57177
 Alpha virt. eigenvalues --    1.57445   1.57853   1.59044   1.59740   1.61070
 Alpha virt. eigenvalues --    1.62291   1.62955   1.63857   1.65194   1.65412
 Alpha virt. eigenvalues --    1.66067   1.66851   1.69872   1.70270   1.71344
 Alpha virt. eigenvalues --    1.71668   1.72566   1.72619   1.72848   1.73833
 Alpha virt. eigenvalues --    1.74146   1.75525   1.75946   1.76254   1.76574
 Alpha virt. eigenvalues --    1.77544   1.77871   1.77899   1.78120   1.78767
 Alpha virt. eigenvalues --    1.78852   1.80031   1.80333   1.80495   1.80898
 Alpha virt. eigenvalues --    1.81582   1.81836   1.82313   1.82410   1.82756
 Alpha virt. eigenvalues --    1.83092   1.83429   1.83571   1.83958   1.84113
 Alpha virt. eigenvalues --    1.84557   1.84787   1.85295   1.85759   1.85939
 Alpha virt. eigenvalues --    1.86118   1.86959   1.87537   1.87705   1.88345
 Alpha virt. eigenvalues --    1.89314   1.89875   1.91123   1.91326   1.92604
 Alpha virt. eigenvalues --    1.93587   1.93761   1.93995   1.94358   1.94965
 Alpha virt. eigenvalues --    1.94997   1.95325   1.95460   1.95703   1.95768
 Alpha virt. eigenvalues --    1.96039   1.96161   1.96488   1.96626   1.96724
 Alpha virt. eigenvalues --    1.96912   1.96991   1.97368   1.97662   1.97703
 Alpha virt. eigenvalues --    1.98054   1.98452   1.99137   1.99711   2.00344
 Alpha virt. eigenvalues --    2.00742   2.01514   2.01619   2.02498   2.03462
 Alpha virt. eigenvalues --    2.04151   2.04675   2.05186   2.05516   2.06640
 Alpha virt. eigenvalues --    2.06697   2.08434   2.10593   2.11855   2.13003
 Alpha virt. eigenvalues --    2.15130   2.16259   2.18702   2.19531   2.19908
 Alpha virt. eigenvalues --    2.20266   2.20663   2.22348   2.23029   2.24210
 Alpha virt. eigenvalues --    2.24824   2.25012   2.25990   2.26512   2.26987
 Alpha virt. eigenvalues --    2.27633   2.28175   2.28413   2.28453   2.29081
 Alpha virt. eigenvalues --    2.29153   2.30447   2.30698   2.30792   2.31131
 Alpha virt. eigenvalues --    2.31310   2.31865   2.32501   2.32904   2.32987
 Alpha virt. eigenvalues --    2.33137   2.33723   2.34664   2.34743   2.35145
 Alpha virt. eigenvalues --    2.35358   2.35911   2.36387   2.36774   2.37384
 Alpha virt. eigenvalues --    2.37594   2.37972   2.38612   2.39020   2.39246
 Alpha virt. eigenvalues --    2.39425   2.39807   2.40274   2.40561   2.40890
 Alpha virt. eigenvalues --    2.41973   2.42302   2.42453   2.43417   2.44004
 Alpha virt. eigenvalues --    2.44216   2.45233   2.48619   2.50446   2.51771
 Alpha virt. eigenvalues --    2.57170   2.57983   2.59067   2.59852   2.60675
 Alpha virt. eigenvalues --    2.61743   2.62669   2.63361   2.64515   2.64747
 Alpha virt. eigenvalues --    2.64864   2.65087   2.65951   2.66666   2.66751
 Alpha virt. eigenvalues --    2.67655   2.68720   2.69113   2.69450   2.69967
 Alpha virt. eigenvalues --    2.71008   2.72185   2.72662   2.72889   2.74630
 Alpha virt. eigenvalues --    2.74994   2.75208   2.76083   2.76767   2.77109
 Alpha virt. eigenvalues --    2.77283   2.77715   2.78348   2.78440   2.79209
 Alpha virt. eigenvalues --    2.79654   2.80747   2.80839   2.82826   2.82892
 Alpha virt. eigenvalues --    2.83138   2.83435   2.83540   2.83775   2.84550
 Alpha virt. eigenvalues --    2.85779   2.86178   2.86560   2.87444   2.88428
 Alpha virt. eigenvalues --    2.89848   2.91286   2.91867   2.93435   2.93478
 Alpha virt. eigenvalues --    2.93697   2.94896   2.95379   2.95766   2.96072
 Alpha virt. eigenvalues --    2.96616   2.97573   2.97987   2.99063   2.99681
 Alpha virt. eigenvalues --    3.00583   3.00692   3.02090   3.02199   3.04054
 Alpha virt. eigenvalues --    3.06600   3.08441   3.09361   3.10041   3.10746
 Alpha virt. eigenvalues --    3.11307   3.12133   3.12532   3.12862   3.13132
 Alpha virt. eigenvalues --    3.13693   3.13828   3.15743   3.17928   3.19412
 Alpha virt. eigenvalues --    3.20692   3.21474   3.22342   3.22803   3.23330
 Alpha virt. eigenvalues --    3.25153   3.26219   3.26799   3.27270   3.29114
 Alpha virt. eigenvalues --    3.31572   3.31733   3.32291   3.32761   3.32821
 Alpha virt. eigenvalues --    3.33881   3.34276   3.34711   3.35193   3.35433
 Alpha virt. eigenvalues --    3.35880   3.36087   3.36364   3.36448   3.36620
 Alpha virt. eigenvalues --    3.36668   3.36781   3.36922   3.37524   3.37749
 Alpha virt. eigenvalues --    3.37998   3.38138   3.38789   3.38983   3.39901
 Alpha virt. eigenvalues --    3.40059   3.40201   3.40362   3.42621   3.43304
 Alpha virt. eigenvalues --    3.43527   3.45251   3.45867   3.47503   3.48278
 Alpha virt. eigenvalues --    3.48580   3.49654   3.50578   3.51647   3.52897
 Alpha virt. eigenvalues --    3.53221   3.56146   3.57866   3.58001   3.59969
 Alpha virt. eigenvalues --    3.61022   3.61160   3.61915   3.62308   3.64173
 Alpha virt. eigenvalues --    3.64491   3.66739   3.67139   3.68004   3.69725
 Alpha virt. eigenvalues --    3.71950   3.73277   3.75109   3.78400   3.79427
 Alpha virt. eigenvalues --    3.81951   3.83803   3.87293   3.87902   3.93853
 Alpha virt. eigenvalues --    3.94470   3.98080   3.98675   3.99075   3.99283
 Alpha virt. eigenvalues --    4.00298   4.00540   4.01611   4.01803   4.02888
 Alpha virt. eigenvalues --    4.03421   4.03999   4.07383   4.08068   4.14889
 Alpha virt. eigenvalues --    4.21717   4.24173   4.30261   4.51398   4.54338
 Alpha virt. eigenvalues --    4.62385   4.79519   4.80727   4.81354   4.81606
 Alpha virt. eigenvalues --    4.82031   4.82302   4.83880   4.95394   4.98153
 Alpha virt. eigenvalues --    5.11422   5.13185   5.15385   5.22712   5.33383
 Alpha virt. eigenvalues --    5.71002  23.31025  23.32649  23.35288  23.35977
 Alpha virt. eigenvalues --   23.37839  23.39917  23.52625  23.80286  23.88656
 Alpha virt. eigenvalues --   23.88889  23.89484  23.89875  23.89940  23.89951
 Alpha virt. eigenvalues --   23.90116  23.90869  23.93232  23.93680  23.94087
 Alpha virt. eigenvalues --   23.94090  23.95485  23.96402  23.98402  24.08193
 Alpha virt. eigenvalues --   24.10443  24.10887  24.11242  24.11434  24.11478
 Alpha virt. eigenvalues --   24.11828  24.12046  24.12756  24.13803  24.14157
 Alpha virt. eigenvalues --   24.14285  24.14896  24.15620  24.19297  24.21403
 Alpha virt. eigenvalues --   24.21893  24.22921  24.23240  24.23394  24.23813
 Alpha virt. eigenvalues --   24.23938  35.62336  35.74712  35.80748  50.05467
          Condensed to atoms (all electrons):
 Mulliken charges:
               1
     1  C    0.493949
     2  C    0.012826
     3  C    0.216972
     4  N   -0.508761
     5  N   -0.526652
     6  C   -0.110432
     7  C   -0.199141
     8  C   -0.195697
     9  C   -0.212875
    10  H    0.249949
    11  C   -0.209917
    12  H    0.247062
    13  C   -0.218137
    14  H    0.227240
    15  H    0.225386
    16  H    0.225125
    17  C   -0.063369
    18  C   -0.186708
    19  C   -0.206369
    20  C   -0.226764
    21  H    0.241908
    22  C   -0.227152
    23  H    0.253542
    24  C   -0.214811
    25  H    0.221747
    26  H    0.219929
    27  H    0.219905
    28  C    0.035274
    29  C   -0.191686
    30  C   -0.198847
    31  C   -0.203737
    32  H    0.253767
    33  C   -0.202808
    34  H    0.255312
    35  C   -0.218194
    36  H    0.233287
    37  H    0.234874
    38  H    0.230370
    39  C   -0.148606
    40  C   -0.206072
    41  C    0.305366
    42  C   -0.244086
    43  H    0.260297
    44  C   -0.268498
    45  C   -0.004600
    46  H    0.229227
    47  H    0.247160
    48  C   -0.041434
    49  C   -0.205906
    50  C   -0.204391
    51  C   -0.255552
    52  H    0.237047
    53  C   -0.254841
    54  H    0.240826
    55  C    0.182876
    56  H    0.252579
    57  H    0.253812
    58  O   -0.596548
    59  H    0.438253
    60  N   -0.575659
    61  C    0.164693
    62  C   -0.245490
    63  C   -0.245067
    64  C   -0.212756
    65  H    0.251814
    66  C   -0.213222
    67  H    0.252068
    68  C   -0.227129
    69  H    0.222909
    70  H    0.223319
    71  H    0.220415
    72  C    0.157307
    73  C   -0.243939
    74  C   -0.242043
    75  C   -0.212882
    76  H    0.253618
    77  C   -0.213388
    78  H    0.251014
    79  C   -0.226901
    80  H    0.224298
    81  H    0.223089
    82  H    0.220655
 Sum of Mulliken charges =  -0.00000
 Mulliken charges with hydrogens summed into heavy atoms:
               1
     1  C    0.493949
     2  C    0.012826
     3  C    0.216972
     4  N   -0.508761
     5  N   -0.526652
     6  C   -0.110432
     7  C    0.050808
     8  C    0.051365
     9  C    0.014364
    11  C    0.015469
    13  C    0.006988
    17  C   -0.063369
    18  C    0.055200
    19  C    0.047173
    20  C   -0.005017
    22  C   -0.007223
    24  C    0.005093
    28  C    0.035274
    29  C    0.062081
    30  C    0.056465
    31  C    0.029550
    33  C    0.032066
    35  C    0.012176
    39  C   -0.148606
    40  C    0.054225
    41  C    0.305366
    42  C   -0.014859
    44  C   -0.021338
    45  C   -0.004600
    48  C   -0.041434
    49  C    0.031141
    50  C    0.036435
    51  C   -0.002973
    53  C   -0.001029
    55  C    0.182876
    58  O   -0.158294
    60  N   -0.575659
    61  C    0.164693
    62  C    0.006324
    63  C    0.007001
    64  C    0.010152
    66  C    0.010096
    68  C   -0.006714
    72  C    0.157307
    73  C    0.009679
    74  C    0.008972
    75  C    0.011415
    77  C    0.009701
    79  C   -0.006245
 Electronic spatial extent (au):  <R**2>=          52939.6297
 Charge=              0.0000 electrons
 Dipole moment (field-independent basis, Debye):
    X=             -1.7307    Y=             -4.7206    Z=              1.2267  Tot=              5.1753
 Quadrupole moment (field-independent basis, Debye-Ang):
   XX=           -241.9308   YY=           -266.0673   ZZ=           -274.7491
   XY=             13.7612   XZ=             -5.5104   YZ=              5.8407
 Traceless Quadrupole moment (field-independent basis, Debye-Ang):
   XX=             18.9849   YY=             -5.1516   ZZ=            -13.8334
   XY=             13.7612   XZ=             -5.5104   YZ=              5.8407
 Octapole moment (field-independent basis, Debye-Ang**2):
  XXX=           -108.3429  YYY=            -39.7558  ZZZ=              5.7178  XYY=            -87.7886
  XXY=            -41.4995  XXZ=             32.0784  XZZ=             63.6334  YZZ=            -24.2385
  YYZ=             13.2879  XYZ=             29.1996
 Hexadecapole moment (field-independent basis, Debye-Ang**3):
 XXXX=         -58715.9244 YYYY=          -6784.8368 ZZZZ=          -3658.9412 XXXY=            324.3168
 XXXZ=           -148.2433 YYYX=            -44.8304 YYYZ=             54.4125 ZZZX=            -71.9878
 ZZZY=            120.6271 XXYY=         -11306.1551 XXZZ=         -10536.4760 YYZZ=          -1807.5105
 XXYZ=            117.9914 YYXZ=             -9.0111 ZZXY=            111.5497
 N-N= 5.300862326873D+03 E-N=-1.518643116635D+04  KE= 1.966353700895D+03
 Unable to Open any file for archive entry.
 1\1\GINC-N02723\FOpt\RM062X\6-311G(d)\C45H33N3O1\SCE4075\24-Oct-2022\0
 \\# M062X/6-311G* opt\\opt\\0,1\C,-3.0803914071,-0.4705742385,-0.07672
 24246\C,-5.0686173558,-1.3345244519,-0.0248242235\C,-5.2504411287,0.02
 91779356,-0.051555488\N,-3.9693260801,0.5745460665,-0.0661776947\N,-3.
 7274915707,-1.61857186,-0.0454974004\C,-6.4764279183,0.8430887764,-0.0
 95866636\C,-7.4473585585,0.5660980516,-1.0628192345\C,-6.7018459746,1.
 8780431019,0.8164661946\C,-8.621398497,1.3065462057,-1.1134349807\H,-7
 .2752732531,-0.2397800638,-1.7680996886\C,-7.873477217,2.6225239026,0.
 7582723712\H,-5.9586037,2.0958347108,1.5758568166\C,-8.8359448313,2.33
 85757379,-0.2051457289\H,-9.3676515487,1.0796989406,-1.866268752\H,-8.
 0368140004,3.4224383538,1.4713857516\H,-9.7508342504,2.9186100587,-0.2
 469953893\C,-6.0684823254,-2.4133602074,0.024376743\C,-5.7659123692,-3
 .6493058084,-0.5536449533\C,-7.3047928915,-2.2452674432,0.6555629285\C
 ,-6.6865003958,-4.6886646361,-0.5177627037\H,-4.8016311846,-3.78219061
 46,-1.0304828967\C,-8.2245718294,-3.2855239367,0.6863622063\H,-7.54064
 4943,-1.3030057938,1.1370505923\C,-7.9210596881,-4.5090821221,0.097547
 3066\H,-6.4391366604,-5.6414253278,-0.9723684195\H,-9.1781126528,-3.14
 27422793,1.1823305769\H,-8.6398089547,-5.3202576518,0.1252193987\C,-3.
 6750934342,1.9703433917,0.0075262625\C,-4.1157229859,2.8208148772,-0.9
 995588341\C,-2.9664823427,2.4604590356,1.0992070952\C,-3.8379104528,4.
 179874166,-0.9123672019\H,-4.6740866145,2.4137560904,-1.8348096437\C,-
 2.6819527752,3.8181655037,1.1719494133\H,-2.6323716533,1.7737108561,1.
 8686994547\C,-3.118413861,4.6785646526,0.1687841795\H,-4.1820796711,4.
 8481827566,-1.6927984009\H,-2.1211687912,4.2039685272,2.0150750779\H,-
 2.8985334571,5.7379897209,0.2306688956\C,-1.6164910865,-0.3775242345,-
 0.1103032324\C,-0.9274533152,0.715644157,-0.6537428322\C,-0.8578070267
 ,-1.4576416028,0.3945460595\C,0.4530237542,0.7781463431,-0.6471853709\
 H,-1.4839443801,1.5331292009,-1.094556307\C,0.5347100819,-1.3745035134
 ,0.4139689216\C,1.2049670913,-0.2678964295,-0.0939265223\H,0.952325606
 1,1.652190983,-1.0483748513\H,1.0758791929,-2.2311564865,0.7991363636\
 C,2.6845662811,-0.2078328103,-0.0684653933\C,3.4034185595,0.3369307089
 ,-1.1366207932\C,3.4088642537,-0.6975170631,1.0223403537\C,4.788062972
 9,0.3966410434,-1.1178378823\H,2.8706104646,0.7060626611,-2.006394501\
 C,4.7943168063,-0.6552115169,1.0457125422\H,2.8774846367,-1.111164154,
 1.872781633\C,5.5032523667,-0.1042783717,-0.0259305364\H,5.3268622426,
 0.8216719707,-1.9570347251\H,5.3369147053,-1.0444049559,1.8996912634\O
 ,-1.404711993,-2.5877298764,0.8685998515\H,-2.3591224127,-2.6005647108
 ,0.6570315868\N,6.9157615124,-0.0581824187,-0.010843747\C,7.6077029367
 ,0.2083980219,1.1950685878\C,7.1295879937,1.1712150045,2.08848597\C,8.
 779785725,-0.487039123,1.5054121984\C,7.8095650041,1.4236574212,3.2725
 417542\H,6.2232297277,1.7152093533,1.8475850029\C,9.4619552471,-0.2152
 042108,2.6837936989\H,9.1500394741,-1.2375391454,0.8162574485\C,8.9807
 984128,0.7370818683,3.5765040108\H,7.4257597325,2.1729109571,3.9559223
 575\H,10.3698981513,-0.7629242851,2.9103081786\H,9.5120803498,0.941618
 0207,4.49849284\C,7.6444248842,-0.3048575832,-1.2001903684\C,7.2413589
 917,-1.3114866913,-2.0817457228\C,8.7772783885,0.4550340063,-1.5038940
 229\C,7.95605936,-1.5439076264,-3.2493819583\H,6.3657889496,-1.9054525
 358,-1.8450674906\C,9.4954864732,0.2036922871,-2.6653742674\H,9.088779
 7097,1.2383973968,-0.8221334935\C,9.0883641166,-0.792461252,-3.5471235
 543\H,7.631011732,-2.3280888929,-3.9239125406\H,10.3727749477,0.800963
 1128,-2.8874261142\H,9.6474466035,-0.9812600122,-4.455954966\\Version=
 ES64L-G16RevC.01\State=1-A\HF=-1973.8066272\RMSD=4.536e-09\RMSF=3.783e
 -06\Dipole=-0.6945845,1.9015943,-0.2175325\Quadrupole=14.262221,-5.326
 5694,-8.9356516,-10.5721052,2.6212278,5.069421\PG=C01 [X(C45H33N3O1)]\
 \@
 The archive entry for this job was punched.


 THE FIRST MORNING OF CREATION WROTE WHAT THE LAST DAWN OF
 RECKONING SHALL READ. -- OMAR KHAYYAM
 Job cpu time:       0 days 22 hours 56 minutes 17.8 seconds.
 Elapsed time:       0 days  0 hours 24 minutes 53.9 seconds.
 File lengths (MBytes):  RWF=    593 Int=      0 D2E=      0 Chk=     73 Scr=      1
 Normal termination of Gaussian 16 at Mon Oct 24 15:47:42 2022.
